r 7.351916363 _703_ AGT  --- 362 tcp 40 [0 2bf 2ac 800] [energy 99.990378 ei 0.005 es 0.000 et 0.001 er 0.003] ------- [361:0 703:0 11 703] [0 0] 20 0
r 7.386452397 _721_ AGT  --- 415 tcp 40 [0 2d1 2be 800] [energy 99.991452 ei 0.005 es 0.000 et 0.001 er 0.003] ------- [379:0 721:0 5 721] [0 0] 26 0
r 7.496235777 _379_ AGT  --- 422 ack 40 [0 17b 18e 800] [energy 99.988529 ei 0.005 es 0.000 et 0.002 er 0.005] ------- [721:0 379:0 5 379] [0 0] 26 0
r 7.621440017 _721_ AGT  --- 425 tcp 16 [0 2d1 2be 800] [energy 99.990985 ei 0.005 es 0.000 et 0.001 er 0.003] ------- [379:0 721:0 5 721] [1 0] 26 0
r 7.641166537 _721_ AGT  --- 426 tcp 16 [0 2d1 2be 800] [energy 99.990723 ei 0.005 es 0.000 et 0.001 er 0.003] ------- [379:0 721:0 5 721] [2 0] 26 0
r 7.796449917 _379_ AGT  --- 429 ack 40 [0 17b 18e 800] [energy 99.987549 ei 0.005 es 0.000 et 0.002 er 0.005] ------- [721:0 379:0 5 379] [1 0] 26 0
r 7.832162697 _379_ AGT  --- 430 ack 40 [0 17b 18e 800] [energy 99.987059 ei 0.005 es 0.000 et 0.002 er 0.006] ------- [721:0 379:0 5 379] [2 0] 26 0
r 7.906517297 _721_ AGT  --- 431 tcp 16 [0 2d1 2be 800] [energy 99.990222 ei 0.006 es 0.000 et 0.001 er 0.003] ------- [379:0 721:0 5 721] [3 0] 26 0
r 7.922247557 _721_ AGT  --- 432 tcp 16 [0 2d1 2be 800] [energy 99.989932 ei 0.006 es 0.000 et 0.001 er 0.003] ------- [379:0 721:0 5 721] [4 0] 26 0
r 7.936442077 _721_ AGT  --- 435 tcp 16 [0 2d1 2be 800] [energy 99.989594 ei 0.006 es 0.000 et 0.001 er 0.003] ------- [379:0 721:0 5 721] [5 0] 26 0
r 7.956268597 _721_ AGT  --- 436 tcp 16 [0 2d1 2be 800] [energy 99.989175 ei 0.006 es 0.000 et 0.002 er 0.004] ------- [379:0 721:0 5 721] [6 0] 26 0
r 8.057212257 _710_ AGT  --- 382 tcp 40 [0 2c6 2b3 800] [energy 99.987463 ei 0.006 es 0.000 et 0.002 er 0.005] ------- [368:0 710:0 5 710] [0 0] 26 0
r 8.064755457 _379_ AGT  --- 437 ack 40 [0 17b 18e 800] [energy 99.986612 ei 0.006 es 0.000 et 0.002 er 0.006] ------- [721:0 379:0 5 379] [3 0] 26 0
r 8.065610427 _707_ AGT  --- 373 tcp 40 [0 2c3 2c2 800] [energy 99.984884 ei 0.006 es 0.000 et 0.002 er 0.007] ------- [365:0 707:0 1 707] [0 0] 30 0
r 8.234671637 _368_ AGT  --- 445 ack 40 [0 170 171 800] [energy 99.983112 ei 0.006 es 0.000 et 0.003 er 0.009] ------- [710:0 368:0 5 368] [0 0] 26 0
r 8.249828357 _721_ AGT  --- 447 tcp 16 [0 2d1 2d0 800] [energy 99.988088 ei 0.006 es 0.000 et 0.002 er 0.004] ------- [379:0 721:0 9 721] [8 0] 22 0
r 8.300017020 _365_ AGT  --- 448 ack 40 [0 16d 16c 800] [energy 99.987617 ei 0.006 es 0.000 et 0.002 er 0.004] ------- [707:0 365:0 3 365] [0 0] 28 0
r 8.315562147 _703_ AGT  --- 444 tcp 40 [0 2bf 2ac 800] [energy 99.987580 ei 0.006 es 0.000 et 0.002 er 0.005] ------- [361:0 703:0 11 703] [0 0] 20 0
r 8.345541057 _710_ AGT  --- 457 tcp 16 [0 2c6 2b3 800] [energy 99.985390 ei 0.006 es 0.000 et 0.002 er 0.006] ------- [368:0 710:0 5 710] [1 0] 26 0
r 8.374719837 _710_ AGT  --- 458 tcp 16 [0 2c6 2b3 800] [energy 99.985122 ei 0.006 es 0.000 et 0.003 er 0.007] ------- [368:0 710:0 5 710] [2 0] 26 0
r 8.381463453 _645_ AGT  --- 434 tcp 40 [0 285 284 800] [energy 99.986183 ei 0.006 es 0.000 et 0.002 er 0.006] ------- [627:0 645:0 5 645] [0 0] 26 0
r 8.419614920 _707_ AGT  --- 462 tcp 16 [0 2c3 2c2 800] [energy 99.983100 ei 0.006 es 0.000 et 0.002 er 0.009] ------- [365:0 707:0 1 707] [1 0] 30 0
r 8.579369347 _711_ AGT  --- 385 tcp 40 [0 2c7 2c8 800] [energy 99.983057 ei 0.006 es 0.000 et 0.002 er 0.009] ------- [369:0 711:0 1 711] [0 0] 30 0
r 8.647852562 _379_ AGT  --- 440 ack 40 [0 17b 17a 800] [energy 99.984150 ei 0.006 es 0.000 et 0.003 er 0.007] ------- [721:0 379:0 7 379] [6 0] 24 0
r 8.764812027 _369_ AGT  --- 476 ack 40 [0 171 184 800] [energy 99.979872 ei 0.006 es 0.000 et 0.003 er 0.011] ------- [711:0 369:0 1 369] [0 0] 30 0
r 8.823094125 _683_ AGT  --- 452 tcp 40 [0 2ab 298 800] [energy 99.983213 ei 0.006 es 0.000 et 0.003 er 0.008] ------- [665:0 683:0 3 683] [0 0] 28 0
r 8.918628707 _711_ AGT  --- 486 tcp 16 [0 2c7 2c8 800] [energy 99.981994 ei 0.006 es 0.000 et 0.003 er 0.009] ------- [369:0 711:0 1 711] [1 0] 30 0
r 9.075925387 _417_ AGT  --- 472 tcp 40 [0 1a1 18e 800] [energy 99.979288 ei 0.006 es 0.000 et 0.003 er 0.011] ------- [399:0 417:0 7 417] [0 0] 24 0
r 9.080274607 _369_ AGT  --- 494 ack 40 [0 171 184 800] [energy 99.979399 ei 0.006 es 0.000 et 0.003 er 0.011] ------- [711:0 369:0 1 369] [1 0] 30 0
r 9.174748940 _713_ AGT  --- 497 tcp 40 [0 2c9 2ca 800] [energy 99.980176 ei 0.006 es 0.000 et 0.003 er 0.010] ------- [371:0 713:0 5 713] [0 0] 26 0
r 9.218512897 _714_ AGT  --- 394 tcp 40 [0 2ca 2b7 800] [energy 99.979695 ei 0.006 es 0.000 et 0.003 er 0.011] ------- [372:0 714:0 1 714] [0 0] 30 0
r 9.333044320 _371_ AGT  --- 504 ack 40 [0 173 186 800] [energy 99.979787 ei 0.006 es 0.000 et 0.003 er 0.011] ------- [713:0 371:0 5 371] [0 0] 26 0
r 9.369001135 _372_ AGT  --- 509 ack 40 [0 174 175 800] [energy 99.978376 ei 0.006 es 0.000 et 0.003 er 0.012] ------- [714:0 372:0 3 372] [0 0] 28 0
r 9.397760630 _550_ AGT  --- 416 tcp 40 [0 226 239 800] [energy 99.980571 ei 0.006 es 0.000 et 0.003 er 0.010] ------- [532:0 550:0 11 550] [0 0] 20 0
r 9.416436955 _474_ AGT  --- 498 tcp 40 [0 1da 1c7 800] [energy 99.977670 ei 0.006 es 0.000 et 0.004 er 0.012] ------- [456:0 474:0 1 474] [0 0] 30 0
r 9.432646576 _713_ AGT  --- 512 tcp 16 [0 2c9 2ca 800] [energy 99.979524 ei 0.006 es 0.000 et 0.003 er 0.011] ------- [371:0 713:0 5 713] [1 0] 26 0
r 9.491691230 _532_ AGT  --- 514 ack 40 [0 214 215 800] [energy 99.982001 ei 0.007 es 0.000 et 0.003 er 0.008] ------- [550:0 532:0 11 532] [0 0] 20 0
r 9.515821640 _512_ AGT  --- 518 tcp 40 [0 200 1ff 800] [energy 99.979782 ei 0.006 es 0.000 et 0.003 er 0.011] ------- [494:0 512:0 5 512] [0 0] 26 0
r 9.523907815 _456_ AGT  --- 519 ack 40 [0 1c8 1b5 800] [energy 99.978260 ei 0.006 es 0.000 et 0.004 er 0.012] ------- [474:0 456:0 9 456] [0 0] 22 0
r 9.540657286 _588_ AGT  --- 420 tcp 40 [0 24c 24b 800] [energy 99.982323 ei 0.007 es 0.000 et 0.002 er 0.009] ------- [570:0 588:0 1 588] [0 0] 30 0
r 9.547229956 _371_ AGT  --- 520 ack 40 [0 173 186 800] [energy 99.979393 ei 0.007 es 0.000 et 0.003 er 0.011] ------- [713:0 371:0 5 371] [1 0] 26 0
r 9.564338350 _550_ AGT  --- 521 tcp 16 [0 226 239 800] [energy 99.980264 ei 0.007 es 0.000 et 0.003 er 0.010] ------- [532:0 550:0 11 550] [1 0] 20 0
r 9.597741130 _550_ AGT  --- 522 tcp 16 [0 226 239 800] [energy 99.980052 ei 0.007 es 0.000 et 0.003 er 0.010] ------- [532:0 550:0 11 550] [2 0] 20 0
r 9.644613020 _494_ AGT  --- 525 ack 40 [0 1ee 1ef 800] [energy 99.977510 ei 0.007 es 0.000 et 0.004 er 0.012] ------- [512:0 494:0 5 494] [0 0] 26 0
r 9.652348909 _713_ AGT  --- 528 tcp 16 [0 2c9 2ca 800] [energy 99.978884 ei 0.007 es 0.000 et 0.003 er 0.011] ------- [371:0 713:0 5 713] [2 0] 26 0
r 9.694737186 _570_ AGT  --- 527 ack 40 [0 23a 23b 800] [energy 99.983021 ei 0.007 es 0.000 et 0.003 er 0.007] ------- [588:0 570:0 1 570] [0 0] 30 0
r 9.778754289 _371_ AGT  --- 537 ack 40 [0 173 186 800] [energy 99.978309 ei 0.007 es 0.000 et 0.003 er 0.012] ------- [713:0 371:0 5 371] [2 0] 26 0
r 9.818026126 _588_ AGT  --- 538 tcp 16 [0 24c 24b 800] [energy 99.981501 ei 0.007 es 0.000 et 0.003 er 0.009] ------- [570:0 588:0 1 588] [1 0] 30 0
r 10.771436549 _713_ AGT  --- 549 tcp 16 [0 2c9 2c8 800] [energy 99.976228 ei 0.007 es 0.000 et 0.004 er 0.013] ------- [371:0 713:0 7 713] [3 0] 24 0
r 10.872479669 _371_ AGT  --- 555 ack 40 [0 173 186 800] [energy 99.976620 ei 0.007 es 0.000 et 0.003 er 0.012] ------- [713:0 371:0 7 371] [3 0] 24 0
r 10.961277569 _713_ AGT  --- 558 tcp 16 [0 2c9 2c8 800] [energy 99.975904 ei 0.007 es 0.000 et 0.004 er 0.013] ------- [371:0 713:0 7 713] [4 0] 24 0
r 10.981012089 _713_ AGT  --- 559 tcp 16 [0 2c9 2c8 800] [energy 99.975584 ei 0.007 es 0.000 et 0.004 er 0.013] ------- [371:0 713:0 7 713] [5 0] 24 0
r 11.078398949 _371_ AGT  --- 560 ack 40 [0 173 186 800] [energy 99.976224 ei 0.008 es 0.000 et 0.004 er 0.013] ------- [713:0 371:0 7 371] [4 0] 24 0
r 11.098837469 _371_ AGT  --- 561 ack 40 [0 173 186 800] [energy 99.976044 ei 0.008 es 0.000 et 0.004 er 0.013] ------- [713:0 371:0 7 371] [5 0] 24 0
r 11.136721900 _664_ AGT  --- 563 tcp 40 [0 298 285 800] [energy 99.978931 ei 0.008 es 0.000 et 0.003 er 0.011] ------- [646:0 664:0 3 664] [0 0] 28 0
r 11.227244149 _713_ AGT  --- 564 tcp 16 [0 2c9 2c8 800] [energy 99.974884 ei 0.008 es 0.000 et 0.004 er 0.013] ------- [371:0 713:0 7 713] [6 0] 24 0
r 11.232926409 _713_ AGT  --- 565 tcp 16 [0 2c9 2c8 800] [energy 99.974762 ei 0.008 es 0.000 et 0.004 er 0.014] ------- [371:0 713:0 7 713] [7 0] 24 0
r 11.267803800 _646_ AGT  --- 566 ack 40 [0 286 287 800] [energy 99.975762 ei 0.008 es 0.000 et 0.004 er 0.013] ------- [664:0 646:0 3 646] [0 0] 28 0
r 11.359675789 _371_ AGT  --- 569 ack 40 [0 173 186 800] [energy 99.975555 ei 0.008 es 0.000 et 0.004 er 0.013] ------- [713:0 371:0 7 371] [6 0] 24 0
r 11.374295440 _664_ AGT  --- 571 tcp 16 [0 298 285 800] [energy 99.978573 ei 0.008 es 0.000 et 0.003 er 0.011] ------- [646:0 664:0 3 664] [1 0] 28 0
r 11.490517198 _683_ AGT  --- 568 tcp 40 [0 2ab 2aa 800] [energy 99.978949 ei 0.008 es 0.000 et 0.003 er 0.010] ------- [665:0 683:0 3 683] [0 0] 28 0
r 11.668272961 _702_ AGT  --- 577 tcp 40 [0 2be 2bd 800] [energy 99.979292 ei 0.008 es 0.000 et 0.003 er 0.010] ------- [684:0 702:0 9 702] [0 0] 22 0
r 11.815056861 _684_ AGT  --- 584 ack 40 [0 2ac 299 800] [energy 99.977264 ei 0.008 es 0.000 et 0.003 er 0.011] ------- [702:0 684:0 1 684] [0 0] 30 0
r 11.897297721 _702_ AGT  --- 590 tcp 16 [0 2be 2bd 800] [energy 99.978734 ei 0.008 es 0.000 et 0.003 er 0.010] ------- [684:0 702:0 11 702] [1 0] 20 0
r 12.031281621 _684_ AGT  --- 594 ack 40 [0 2ac 299 800] [energy 99.976945 ei 0.008 es 0.000 et 0.003 er 0.011] ------- [702:0 684:0 1 684] [1 0] 30 0
r 12.104888741 _702_ AGT  --- 1015 tcp 16 [0 2be 2bd 800] [energy 99.978398 ei 0.008 es 0.000 et 0.003 er 0.010] ------- [684:0 702:0 11 702] [2 0] 20 0
r 12.120811001 _702_ AGT  --- 1016 tcp 16 [0 2be 2bd 800] [energy 99.978130 ei 0.008 es 0.000 et 0.003 er 0.011] ------- [684:0 702:0 11 702] [3 0] 20 0
r 12.265282901 _684_ AGT  --- 1132 ack 40 [0 2ac 299 800] [energy 99.975960 ei 0.008 es 0.000 et 0.004 er 0.012] ------- [702:0 684:0 1 684] [2 0] 30 0
r 12.265623171 _493_ AGT  --- 398 tcp 40 [0 1ed 1ec 800] [energy 99.973254 ei 0.008 es 0.000 et 0.004 er 0.014] ------- [475:0 493:0 5 493] [0 0] 26 0
r 12.340205501 _702_ AGT  --- 1153 tcp 16 [0 2be 2bd 800] [energy 99.977533 ei 0.009 es 0.000 et 0.003 er 0.011] ------- [684:0 702:0 11 702] [4 0] 20 0
r 12.403225594 _712_ AGT  --- 388 tcp 40 [0 2c8 2b5 800] [energy 99.971353 ei 0.008 es 0.000 et 0.005 er 0.015] ------- [370:0 712:0 7 712] [0 0] 24 0
r 12.422497594 _712_ AGT  --- 493 tcp 40 [0 2c8 2b5 800] [energy 99.971124 ei 0.008 es 0.000 et 0.005 er 0.016] ------- [370:0 712:0 7 712] [0 0] 24 0
r 12.424787464 _475_ AGT  --- 1154 ack 40 [0 1db 1dc 800] [energy 99.971708 ei 0.008 es 0.000 et 0.004 er 0.015] ------- [493:0 475:0 7 475] [0 0] 24 0
r 12.564345494 _370_ AGT  --- 1169 ack 40 [0 172 185 800] [energy 99.973087 ei 0.009 es 0.000 et 0.004 er 0.015] ------- [712:0 370:0 1 370] [0 0] 30 0
r 12.576463754 _370_ AGT  --- 1171 ack 40 [0 172 185 800] [energy 99.972913 ei 0.009 es 0.000 et 0.004 er 0.015] ------- [712:0 370:0 1 370] [0 0] 30 0
r 12.687819134 _712_ AGT  --- 1181 tcp 16 [0 2c8 2c7 800] [energy 99.970370 ei 0.009 es 0.000 et 0.005 er 0.016] ------- [370:0 712:0 1 712] [1 0] 30 0
r 12.701501394 _712_ AGT  --- 1184 tcp 16 [0 2c8 2c7 800] [energy 99.970111 ei 0.009 es 0.000 et 0.005 er 0.016] ------- [370:0 712:0 1 712] [2 0] 30 0
r 12.757418385 _493_ AGT  --- 1173 tcp 16 [0 1ed 1ec 800] [energy 99.970497 ei 0.009 es 0.000 et 0.004 er 0.016] ------- [475:0 493:0 7 493] [1 0] 24 0
r 12.846393294 _370_ AGT  --- 1193 ack 40 [0 172 185 800] [energy 99.971934 ei 0.009 es 0.000 et 0.004 er 0.015] ------- [712:0 370:0 1 370] [1 0] 30 0
r 12.870841245 _475_ AGT  --- 1200 ack 40 [0 1db 1dc 800] [energy 99.970392 ei 0.009 es 0.000 et 0.005 er 0.016] ------- [493:0 475:0 9 475] [1 0] 22 0
r 12.887704334 _370_ AGT  --- 1195 ack 40 [0 172 185 800] [energy 99.971739 ei 0.009 es 0.000 et 0.004 er 0.015] ------- [712:0 370:0 1 370] [2 0] 30 0
r 12.897005501 _702_ AGT  --- 1207 tcp 16 [0 2be 2bd 800] [energy 99.976410 ei 0.009 es 0.000 et 0.003 er 0.012] ------- [684:0 702:0 11 702] [3 0] 20 0
r 12.925686805 _531_ AGT  --- 410 tcp 40 [0 213 200 800] [energy 99.972129 ei 0.009 es 0.000 et 0.004 er 0.015] ------- [513:0 531:0 7 531] [0 0] 24 0
r 12.966119454 _712_ AGT  --- 1211 tcp 16 [0 2c8 2c7 800] [energy 99.969299 ei 0.009 es 0.000 et 0.005 er 0.017] ------- [370:0 712:0 1 712] [3 0] 30 0
r 13.004870494 _712_ AGT  --- 1218 tcp 16 [0 2c8 2c7 800] [energy 99.969083 ei 0.009 es 0.000 et 0.005 er 0.017] ------- [370:0 712:0 1 712] [4 0] 30 0
r 13.107257354 _370_ AGT  --- 1226 ack 40 [0 172 185 800] [energy 99.971418 ei 0.009 es 0.000 et 0.004 er 0.016] ------- [712:0 370:0 1 370] [3 0] 30 0
r 13.134516654 _370_ AGT  --- 1232 ack 40 [0 172 185 800] [energy 99.971233 ei 0.009 es 0.000 et 0.004 er 0.016] ------- [712:0 370:0 1 370] [4 0] 30 0
r 13.222439514 _712_ AGT  --- 1526 tcp 16 [0 2c8 2c7 800] [energy 99.968739 ei 0.009 es 0.000 et 0.005 er 0.017] ------- [370:0 712:0 1 712] [5 0] 30 0
r 13.257122814 _712_ AGT  --- 1532 tcp 16 [0 2c8 2c7 800] [energy 99.968526 ei 0.009 es 0.000 et 0.005 er 0.017] ------- [370:0 712:0 1 712] [6 0] 30 0
r 13.275285074 _712_ AGT  --- 1533 tcp 16 [0 2c8 2c7 800] [energy 99.968257 ei 0.009 es 0.000 et 0.006 er 0.017] ------- [370:0 712:0 1 712] [7 0] 30 0
r 13.381960194 _370_ AGT  --- 1548 ack 40 [0 172 185 800] [energy 99.970746 ei 0.009 es 0.000 et 0.004 er 0.016] ------- [712:0 370:0 1 370] [5 0] 30 0
r 13.490664094 _712_ AGT  --- 1590 tcp 16 [0 2c8 2c7 800] [energy 99.967797 ei 0.009 es 0.000 et 0.006 er 0.017] ------- [370:0 712:0 1 712] [8 0] 30 0
r 14.017325501 _702_ AGT  --- 1688 tcp 16 [0 2be 2bd 800] [energy 99.974835 ei 0.010 es 0.000 et 0.003 er 0.012] ------- [684:0 702:0 11 702] [3 0] 20 0
r 14.084584094 _712_ AGT  --- 1698 tcp 16 [0 2c8 2c7 800] [energy 99.966868 ei 0.010 es 0.000 et 0.006 er 0.018] ------- [370:0 712:0 1 712] [6 0] 30 0
r 14.589707120 _417_ AGT  --- 2014 tcp 40 [0 1a1 18e 800] [energy 99.970087 ei 0.010 es 0.000 et 0.004 er 0.015] ------- [399:0 417:0 7 417] [0 0] 24 0
r 14.689620871 _368_ AGT  --- 465 ack 40 [0 170 16f 800] [energy 99.970971 ei 0.010 es 0.000 et 0.004 er 0.015] ------- [710:0 368:0 5 368] [1 0] 26 0
r 14.936774765 _710_ AGT  --- 2093 tcp 16 [0 2c6 2c7 800] [energy 99.969379 ei 0.010 es 0.000 et 0.006 er 0.015] ------- [368:0 710:0 3 710] [3 0] 28 0
r 14.957846765 _710_ AGT  --- 2094 tcp 16 [0 2c6 2c7 800] [energy 99.969050 ei 0.010 es 0.000 et 0.006 er 0.015] ------- [368:0 710:0 3 710] [4 0] 28 0
r 15.220964103 _399_ AGT  --- 499 ack 40 [0 18f 1a2 800] [energy 99.970608 ei 0.010 es 0.000 et 0.005 er 0.014] ------- [417:0 399:0 5 399] [0 0] 26 0
r 15.284844826 _721_ AGT  --- 484 tcp 16 [0 2d1 2be 800] [energy 99.979235 ei 0.011 es 0.000 et 0.003 er 0.007] ------- [379:0 721:0 1 721] [12 0] 30 0
r 15.295016094 _712_ AGT  --- 2212 tcp 16 [0 2c8 2c7 800] [energy 99.963763 ei 0.010 es 0.000 et 0.006 er 0.020] ------- [370:0 712:0 1 712] [6 0] 30 0
r 15.327187223 _417_ AGT  --- 2218 tcp 16 [0 1a1 18e 800] [energy 99.967619 ei 0.010 es 0.000 et 0.005 er 0.017] ------- [399:0 417:0 7 417] [1 0] 24 0
r 15.356171996 _720_ AGT  --- 412 tcp 40 [0 2d0 2d1 800] [energy 99.973039 ei 0.011 es 0.000 et 0.003 er 0.013] ------- [378:0 720:0 5 720] [0 0] 26 0
r 15.706341120 _719_ AGT  --- 2260 tcp 40 [0 2cf 2ce 800] [energy 99.972263 ei 0.011 es 0.000 et 0.003 er 0.014] ------- [377:0 719:0 9 719] [0 0] 22 0
r 15.859673523 _714_ AGT  --- 2234 tcp 16 [0 2ca 2b7 800] [energy 99.965746 ei 0.011 es 0.000 et 0.005 er 0.018] ------- [372:0 714:0 3 714] [1 0] 28 0
r 15.869023639 _474_ AGT  --- 2252 tcp 16 [0 1da 1c7 800] [energy 99.965095 ei 0.011 es 0.000 et 0.006 er 0.018] ------- [456:0 474:0 3 474] [1 0] 28 0
r 15.981717163 _372_ AGT  --- 2275 ack 40 [0 174 173 800] [energy 99.964582 ei 0.011 es 0.000 et 0.005 er 0.020] ------- [714:0 372:0 3 372] [1 0] 28 0
r 16.000109539 _456_ AGT  --- 2277 ack 40 [0 1c8 1db 800] [energy 99.964708 ei 0.011 es 0.000 et 0.005 er 0.019] ------- [474:0 456:0 1 456] [1 0] 30 0
r 16.004107300 _512_ AGT  --- 2265 tcp 16 [0 200 1ff 800] [energy 99.965900 ei 0.011 es 0.000 et 0.005 er 0.018] ------- [494:0 512:0 9 512] [1 0] 22 0
r 16.091451323 _714_ AGT  --- 2281 tcp 16 [0 2ca 2b7 800] [energy 99.965392 ei 0.011 es 0.000 et 0.005 er 0.018] ------- [372:0 714:0 3 714] [2 0] 28 0
r 16.100378160 _494_ AGT  --- 2287 ack 40 [0 1ee 1ef 800] [energy 99.964114 ei 0.011 es 0.000 et 0.005 er 0.020] ------- [512:0 494:0 9 494] [1 0] 22 0
r 16.105477179 _474_ AGT  --- 2285 tcp 16 [0 1da 1c7 800] [energy 99.964532 ei 0.011 es 0.000 et 0.006 er 0.019] ------- [456:0 474:0 3 474] [2 0] 28 0
r 16.129833439 _474_ AGT  --- 2286 tcp 16 [0 1da 1c7 800] [energy 99.964326 ei 0.011 es 0.000 et 0.006 er 0.019] ------- [456:0 474:0 3 474] [3 0] 28 0
r 16.194914060 _512_ AGT  --- 2290 tcp 16 [0 200 1ff 800] [energy 99.965575 ei 0.011 es 0.000 et 0.005 er 0.018] ------- [494:0 512:0 9 512] [2 0] 22 0
r 16.253605079 _456_ AGT  --- 2292 ack 40 [0 1c8 1db 800] [energy 99.963904 ei 0.011 es 0.000 et 0.006 er 0.019] ------- [474:0 456:0 1 456] [2 0] 30 0
r 16.291833304 _512_ AGT  --- 2291 tcp 16 [0 200 213 800] [energy 99.964643 ei 0.011 es 0.000 et 0.005 er 0.019] ------- [494:0 512:0 7 512] [3 0] 24 0
r 16.324905761 _702_ AGT  --- 2297 tcp 16 [0 2be 2bd 800] [energy 99.969787 ei 0.011 es 0.000 et 0.004 er 0.015] ------- [684:0 702:0 11 702] [3 0] 20 0
r 16.388622719 _474_ AGT  --- 2301 tcp 16 [0 1da 1c7 800] [energy 99.962932 ei 0.011 es 0.000 et 0.006 er 0.020] ------- [456:0 474:0 3 474] [4 0] 28 0
r 16.397675711 _377_ AGT  --- 2269 ack 40 [0 179 18c 800] [energy 99.964857 ei 0.011 es 0.000 et 0.005 er 0.019] ------- [719:0 377:0 9 377] [0 0] 22 0
r 16.475834571 _719_ AGT  --- 2311 tcp 16 [0 2cf 2ce 800] [energy 99.970389 ei 0.011 es 0.000 et 0.004 er 0.015] ------- [377:0 719:0 9 719] [1 0] 22 0
r 16.569417431 _377_ AGT  --- 2318 ack 40 [0 179 18c 800] [energy 99.964431 ei 0.011 es 0.000 et 0.005 er 0.019] ------- [719:0 377:0 9 377] [1 0] 22 0
r 16.661023591 _719_ AGT  --- 2319 tcp 16 [0 2cf 2ce 800] [energy 99.970068 ei 0.011 es 0.000 et 0.004 er 0.015] ------- [377:0 719:0 9 719] [2 0] 22 0
r 17.146668272 _474_ AGT  --- 2332 tcp 16 [0 1da 1c7 800] [energy 99.961930 ei 0.012 es 0.000 et 0.006 er 0.020] ------- [456:0 474:0 3 474] [3 0] 28 0
r 17.286190512 _645_ AGT  --- 2327 tcp 40 [0 285 284 800] [energy 99.969574 ei 0.012 es 0.000 et 0.004 er 0.014] ------- [627:0 645:0 7 645] [0 0] 24 0
r 17.476165960 _664_ AGT  --- 2338 tcp 16 [0 298 285 800] [energy 99.967276 ei 0.012 es 0.000 et 0.004 er 0.017] ------- [646:0 664:0 3 664] [1 0] 28 0
r 17.714294094 _712_ AGT  --- 2343 tcp 16 [0 2c8 2c7 800] [energy 99.959232 ei 0.012 es 0.000 et 0.007 er 0.022] ------- [370:0 712:0 1 712] [6 0] 30 0
r 18.572774357 _719_ AGT  --- 2320 tcp 16 [0 2cf 2d0 800] [energy 99.966079 ei 0.013 es 0.000 et 0.005 er 0.017] ------- [377:0 719:0 7 719] [3 0] 24 0
r 18.593762617 _719_ AGT  --- 2333 tcp 16 [0 2cf 2d0 800] [energy 99.965882 ei 0.013 es 0.000 et 0.005 er 0.017] ------- [377:0 719:0 7 719] [2 0] 24 0
r 18.597794877 _719_ AGT  --- 2345 tcp 16 [0 2cf 2d0 800] [energy 99.965836 ei 0.013 es 0.000 et 0.005 er 0.017] ------- [377:0 719:0 7 719] [2 0] 24 0
r 18.619372719 _474_ AGT  --- 2346 tcp 16 [0 1da 1c7 800] [energy 99.958826 ei 0.013 es 0.000 et 0.007 er 0.022] ------- [456:0 474:0 3 474] [3 0] 28 0
r 18.668789897 _684_ AGT  --- 1160 ack 40 [0 2ac 299 800] [energy 99.965689 ei 0.013 es 0.000 et 0.005 er 0.016] ------- [702:0 684:0 1 684] [4 0] 30 0
r 18.738528497 _702_ AGT  --- 2351 tcp 16 [0 2be 2bd 800] [energy 99.965433 ei 0.013 es 0.000 et 0.005 er 0.017] ------- [684:0 702:0 11 702] [5 0] 20 0
r 18.756988757 _702_ AGT  --- 2352 tcp 16 [0 2be 2bd 800] [energy 99.965110 ei 0.013 es 0.000 et 0.005 er 0.017] ------- [684:0 702:0 11 702] [6 0] 20 0
r 19.088726827 _684_ AGT  --- 2354 ack 40 [0 2ac 299 800] [energy 99.964413 ei 0.013 es 0.000 et 0.005 er 0.017] ------- [702:0 684:0 11 684] [5 0] 20 0
r 19.195305947 _702_ AGT  --- 2357 tcp 16 [0 2be 2bd 800] [energy 99.964053 ei 0.013 es 0.000 et 0.005 er 0.018] ------- [684:0 702:0 9 702] [7 0] 22 0
r 19.873889687 _702_ AGT  --- 2359 tcp 16 [0 2be 2bd 800] [energy 99.962948 ei 0.014 es 0.000 et 0.005 er 0.018] ------- [684:0 702:0 9 702] [6 0] 22 0
r 20.252822551 _719_ AGT  --- 2361 tcp 16 [0 2cf 2d0 800] [energy 99.962046 ei 0.014 es 0.000 et 0.005 er 0.019] ------- [377:0 719:0 7 719] [2 0] 24 0
r 20.921289004 _377_ AGT  --- 2347 ack 40 [0 179 178 800] [energy 99.956514 ei 0.014 es 0.000 et 0.006 er 0.023] ------- [719:0 377:0 7 377] [3 0] 24 0
r 20.962912304 _377_ AGT  --- 2348 ack 40 [0 179 178 800] [energy 99.956107 ei 0.014 es 0.000 et 0.006 er 0.023] ------- [719:0 377:0 7 377] [3 0] 24 0
r 21.136470910 _377_ AGT  --- 2362 ack 40 [0 179 18c 800] [energy 99.955466 ei 0.014 es 0.000 et 0.006 er 0.024] ------- [719:0 377:0 7 377] [3 0] 24 0
r 21.263923687 _702_ AGT  --- 2367 tcp 16 [0 2be 2bd 800] [energy 99.960585 ei 0.015 es 0.000 et 0.006 er 0.019] ------- [684:0 702:0 9 702] [6 0] 22 0
r 21.612400719 _474_ AGT  --- 2369 tcp 16 [0 1da 1c7 800] [energy 99.953902 ei 0.015 es 0.000 et 0.007 er 0.024] ------- [456:0 474:0 3 474] [3 0] 28 0
r 22.772341693 _712_ AGT  --- 2372 tcp 16 [0 2c8 2c7 800] [energy 99.950574 ei 0.016 es 0.000 et 0.008 er 0.026] ------- [370:0 712:0 7 712] [6 0] 24 0
r 22.881704813 _370_ AGT  --- 2373 ack 40 [0 172 185 800] [energy 99.950305 ei 0.016 es 0.000 et 0.007 er 0.027] ------- [712:0 370:0 7 370] [8 0] 24 0
r 22.986424193 _712_ AGT  --- 2374 tcp 16 [0 2c8 2c7 800] [energy 99.949976 ei 0.016 es 0.000 et 0.008 er 0.026] ------- [370:0 712:0 7 712] [9 0] 24 0
r 22.994986453 _712_ AGT  --- 2375 tcp 16 [0 2c8 2c7 800] [energy 99.949840 ei 0.016 es 0.000 et 0.008 er 0.027] ------- [370:0 712:0 7 712] [10 0] 24 0
r 23.239670957 _713_ AGT  --- 573 tcp 16 [0 2c9 2c8 800] [energy 99.952013 ei 0.016 es 0.000 et 0.007 er 0.025] ------- [371:0 713:0 3 713] [9 0] 28 0
r 23.252230957 _713_ AGT  --- 592 tcp 16 [0 2c9 2c8 800] [energy 99.951878 ei 0.016 es 0.000 et 0.007 er 0.026] ------- [371:0 713:0 3 713] [7 0] 28 0
r 23.261782957 _713_ AGT  --- 1208 tcp 16 [0 2c9 2c8 800] [energy 99.951816 ei 0.016 es 0.000 et 0.007 er 0.026] ------- [371:0 713:0 3 713] [7 0] 28 0
r 23.271974957 _713_ AGT  --- 2127 tcp 16 [0 2c9 2c8 800] [energy 99.951754 ei 0.016 es 0.000 et 0.007 er 0.026] ------- [371:0 713:0 3 713] [7 0] 28 0
r 23.288694957 _713_ AGT  --- 2353 tcp 16 [0 2c9 2c8 800] [energy 99.951687 ei 0.016 es 0.000 et 0.007 er 0.026] ------- [371:0 713:0 3 713] [7 0] 28 0
r 23.338170498 _646_ AGT  --- 2341 ack 40 [0 286 287 800] [energy 99.952834 ei 0.016 es 0.000 et 0.007 er 0.024] ------- [664:0 646:0 1 646] [1 0] 30 0
r 23.596591258 _683_ AGT  --- 2337 tcp 40 [0 2ab 2aa 800] [energy 99.956986 ei 0.016 es 0.000 et 0.006 er 0.021] ------- [665:0 683:0 3 683] [0 0] 28 0
r 23.977431837 _665_ AGT  --- 2393 ack 40 [0 299 29a 800] [energy 99.953340 ei 0.016 es 0.000 et 0.007 er 0.023] ------- [683:0 665:0 11 665] [0 0] 20 0
r 24.064358697 _683_ AGT  --- 2464 tcp 16 [0 2ab 2aa 800] [energy 99.956123 ei 0.017 es 0.000 et 0.006 er 0.021] ------- [665:0 683:0 9 683] [1 0] 22 0
r 24.150481297 _665_ AGT  --- 2691 ack 40 [0 299 29a 800] [energy 99.952975 ei 0.017 es 0.000 et 0.007 er 0.024] ------- [683:0 665:0 11 665] [1 0] 20 0
r 24.232750417 _683_ AGT  --- 2708 tcp 16 [0 2ab 2aa 800] [energy 99.955815 ei 0.017 es 0.000 et 0.006 er 0.022] ------- [665:0 683:0 9 683] [2 0] 22 0
r 24.256772937 _683_ AGT  --- 2709 tcp 16 [0 2ab 2aa 800] [energy 99.955491 ei 0.017 es 0.000 et 0.006 er 0.022] ------- [665:0 683:0 9 683] [3 0] 22 0
r 24.334695277 _665_ AGT  --- 2713 ack 40 [0 299 29a 800] [energy 99.952595 ei 0.017 es 0.000 et 0.007 er 0.024] ------- [683:0 665:0 11 665] [2 0] 20 0
r 24.583716615 _493_ AGT  --- 1214 tcp 16 [0 1ed 1da 800] [energy 99.951848 ei 0.017 es 0.000 et 0.007 er 0.024] ------- [475:0 493:0 9 493] [2 0] 22 0
r 24.595316615 _493_ AGT  --- 1215 tcp 16 [0 1ed 1da 800] [energy 99.951649 ei 0.017 es 0.000 et 0.007 er 0.024] ------- [475:0 493:0 9 493] [3 0] 22 0
r 24.606340615 _493_ AGT  --- 1948 tcp 16 [0 1ed 1da 800] [energy 99.951587 ei 0.017 es 0.000 et 0.007 er 0.024] ------- [475:0 493:0 9 493] [2 0] 22 0
r 24.611703358 _720_ AGT  --- 541 tcp 40 [0 2d0 2d1 800] [energy 99.956574 ei 0.017 es 0.000 et 0.005 er 0.021] ------- [378:0 720:0 5 720] [0 0] 26 0
r 24.624439618 _720_ AGT  --- 2268 tcp 40 [0 2d0 2d1 800] [energy 99.956358 ei 0.017 es 0.000 et 0.005 er 0.022] ------- [378:0 720:0 5 720] [0 0] 26 0
r 24.627092615 _493_ AGT  --- 2329 tcp 16 [0 1ed 1da 800] [energy 99.951517 ei 0.017 es 0.000 et 0.007 er 0.024] ------- [475:0 493:0 9 493] [2 0] 22 0
r 24.634644875 _493_ AGT  --- 2371 tcp 16 [0 1ed 1da 800] [energy 99.951457 ei 0.017 es 0.000 et 0.007 er 0.024] ------- [475:0 493:0 9 493] [2 0] 22 0
r 24.810078243 _665_ AGT  --- 2735 ack 40 [0 299 29a 800] [energy 99.951148 ei 0.017 es 0.000 et 0.007 er 0.025] ------- [683:0 665:0 11 665] [3 0] 20 0
r 24.999215026 _475_ AGT  --- 2771 ack 40 [0 1db 1dc 800] [energy 99.951197 ei 0.017 es 0.000 et 0.007 er 0.024] ------- [493:0 475:0 9 475] [2 0] 22 0
r 25.119639366 _493_ AGT  --- 2862 tcp 16 [0 1ed 200 800] [energy 99.949966 ei 0.017 es 0.000 et 0.008 er 0.025] ------- [475:0 493:0 9 493] [3 0] 22 0
r 25.156063092 _683_ AGT  --- 2850 tcp 16 [0 2ab 298 800] [energy 99.952938 ei 0.017 es 0.000 et 0.006 er 0.023] ------- [665:0 683:0 7 683] [3 0] 24 0
r 25.188749092 _683_ AGT  --- 2851 tcp 16 [0 2ab 298 800] [energy 99.952298 ei 0.017 es 0.000 et 0.006 er 0.024] ------- [665:0 683:0 7 683] [4 0] 24 0
r 25.202943352 _683_ AGT  --- 2852 tcp 16 [0 2ab 298 800] [energy 99.951964 ei 0.017 es 0.000 et 0.006 er 0.024] ------- [665:0 683:0 7 683] [5 0] 24 0
r 25.556398954 _665_ AGT  --- 3103 ack 40 [0 299 29a 800] [energy 99.949385 ei 0.018 es 0.000 et 0.007 er 0.026] ------- [683:0 665:0 11 665] [5 0] 20 0
r 25.645579374 _683_ AGT  --- 3176 tcp 16 [0 2ab 2aa 800] [energy 99.951109 ei 0.018 es 0.000 et 0.007 er 0.025] ------- [665:0 683:0 11 683] [6 0] 20 0
r 25.659873894 _683_ AGT  --- 3177 tcp 16 [0 2ab 2aa 800] [energy 99.950910 ei 0.018 es 0.000 et 0.007 er 0.025] ------- [665:0 683:0 11 683] [7 0] 20 0
r 25.746244234 _665_ AGT  --- 3189 ack 40 [0 299 29a 800] [energy 99.948795 ei 0.018 es 0.000 et 0.007 er 0.026] ------- [683:0 665:0 11 665] [6 0] 20 0
r 25.764648754 _665_ AGT  --- 3191 ack 40 [0 299 29a 800] [energy 99.948616 ei 0.018 es 0.000 et 0.007 er 0.026] ------- [683:0 665:0 11 665] [7 0] 20 0
r 25.815242574 _683_ AGT  --- 3257 tcp 16 [0 2ab 2aa 800] [energy 99.950568 ei 0.018 es 0.000 et 0.007 er 0.025] ------- [665:0 683:0 11 683] [8 0] 20 0
r 25.858601614 _683_ AGT  --- 3260 tcp 16 [0 2ab 2aa 800] [energy 99.950348 ei 0.018 es 0.000 et 0.007 er 0.025] ------- [665:0 683:0 11 683] [9 0] 20 0
r 25.869907411 _710_ AGT  --- 3162 tcp 16 [0 2c6 2b3 800] [energy 99.950509 ei 0.018 es 0.000 et 0.008 er 0.024] ------- [368:0 710:0 5 710] [2 0] 26 0
r 25.938897694 _665_ AGT  --- 3265 ack 40 [0 299 29a 800] [energy 99.948232 ei 0.018 es 0.000 et 0.008 er 0.026] ------- [683:0 665:0 11 665] [8 0] 20 0
r 25.979050791 _368_ AGT  --- 3269 ack 40 [0 170 171 800] [energy 99.948743 ei 0.018 es 0.000 et 0.007 er 0.026] ------- [710:0 368:0 5 368] [4 0] 26 0
r 26.074590691 _710_ AGT  --- 3287 tcp 16 [0 2c6 2b3 800] [energy 99.949989 ei 0.018 es 0.000 et 0.008 er 0.024] ------- [368:0 710:0 5 710] [5 0] 26 0
r 26.096373211 _710_ AGT  --- 3288 tcp 16 [0 2c6 2b3 800] [energy 99.949726 ei 0.018 es 0.000 et 0.008 er 0.024] ------- [368:0 710:0 5 710] [6 0] 26 0
r 26.213956331 _368_ AGT  --- 3471 ack 40 [0 170 171 800] [energy 99.948327 ei 0.018 es 0.000 et 0.008 er 0.026] ------- [710:0 368:0 5 368] [5 0] 26 0
r 26.337559711 _710_ AGT  --- 3501 tcp 16 [0 2c6 2b3 800] [energy 99.949034 ei 0.018 es 0.000 et 0.008 er 0.024] ------- [368:0 710:0 5 710] [7 0] 26 0
r 26.645045446 _398_ AGT  --- 3498 tcp 40 [0 18e 1a1 800] [energy 99.949049 ei 0.018 es 0.000 et 0.007 er 0.025] ------- [380:0 398:0 5 398] [0 0] 26 0
r 26.679477429 _713_ AGT  --- 3584 tcp 16 [0 2c9 2c8 800] [energy 99.945856 ei 0.018 es 0.000 et 0.007 er 0.029] ------- [371:0 713:0 3 713] [7 0] 28 0
r 26.777804826 _380_ AGT  --- 3603 ack 40 [0 17c 18f 800] [energy 99.956090 ei 0.019 es 0.000 et 0.007 er 0.019] ------- [398:0 380:0 5 380] [0 0] 26 0
r 26.875300206 _398_ AGT  --- 3676 tcp 16 [0 18e 1a1 800] [energy 99.947806 ei 0.018 es 0.000 et 0.008 er 0.026] ------- [380:0 398:0 5 398] [1 0] 26 0
r 26.912101887 _378_ AGT  --- 2777 ack 40 [0 17a 18d 800] [energy 99.948698 ei 0.018 es 0.000 et 0.007 er 0.025] ------- [720:0 378:0 9 378] [0 0] 22 0
r 26.994228747 _720_ AGT  --- 3697 tcp 16 [0 2d0 2bd 800] [energy 99.952805 ei 0.019 es 0.000 et 0.005 er 0.023] ------- [378:0 720:0 9 720] [1 0] 22 0
r 26.997371586 _380_ AGT  --- 3687 ack 40 [0 17c 18f 800] [energy 99.955563 ei 0.019 es 0.000 et 0.007 er 0.019] ------- [398:0 380:0 5 380] [1 0] 26 0
r 27.044137866 _436_ AGT  --- 3597 tcp 40 [0 1b4 1c7 800] [energy 99.947387 ei 0.019 es 0.000 et 0.008 er 0.026] ------- [418:0 436:0 3 436] [0 0] 28 0
r 27.069499796 _399_ AGT  --- 2066 ack 40 [0 18f 1a2 800] [energy 99.953707 ei 0.019 es 0.000 et 0.008 er 0.020] ------- [417:0 399:0 5 399] [0 0] 26 0
r 27.085709822 _399_ AGT  --- 2231 ack 40 [0 18f 1a2 800] [energy 99.953434 ei 0.019 es 0.000 et 0.008 er 0.020] ------- [417:0 399:0 5 399] [1 0] 26 0
r 27.089731607 _378_ AGT  --- 3707 ack 40 [0 17a 18d 800] [energy 99.948133 ei 0.019 es 0.000 et 0.008 er 0.026] ------- [720:0 378:0 9 378] [1 0] 22 0