s 5.000000000 _361_ AGT  --- 362 tcp 40 [0 0 0 0] [energy 100.000000 ei 0.000 es 0.000 et 0.000 er 0.000] ------- [361:0 703:0 32 0] [0 0] 0 0
s 5.100000000 _362_ AGT  --- 364 tcp 40 [0 0 0 0] [energy 99.996149 ei 0.004 es 0.000 et 0.000 er 0.000] ------- [362:0 704:0 32 0] [0 0] 0 0
s 5.200000000 _363_ AGT  --- 367 tcp 40 [0 0 0 0] [energy 99.995806 ei 0.004 es 0.000 et 0.000 er 0.000] ------- [363:0 705:0 32 0] [0 0] 0 0
s 5.200000000 _380_ AGT  --- 368 tcp 40 [0 0 0 0] [energy 99.995871 ei 0.004 es 0.000 et 0.000 er 0.000] ------- [380:0 398:0 32 0] [0 0] 0 0
s 5.300000000 _364_ AGT  --- 370 tcp 40 [0 0 0 0] [energy 99.995215 ei 0.004 es 0.000 et 0.000 er 0.001] ------- [364:0 706:0 32 0] [0 0] 0 0
s 5.400000000 _365_ AGT  --- 373 tcp 40 [0 0 0 0] [energy 99.995139 ei 0.004 es 0.000 et 0.000 er 0.001] ------- [365:0 707:0 32 0] [0 0] 0 0
s 5.400000000 _399_ AGT  --- 374 tcp 40 [0 0 0 0] [energy 99.994932 ei 0.004 es 0.000 et 0.000 er 0.001] ------- [399:0 417:0 32 0] [0 0] 0 0
s 5.500000000 _366_ AGT  --- 376 tcp 40 [0 0 0 0] [energy 99.994795 ei 0.004 es 0.000 et 0.000 er 0.001] ------- [366:0 708:0 32 0] [0 0] 0 0
s 5.600000000 _367_ AGT  --- 379 tcp 40 [0 0 0 0] [energy 99.994739 ei 0.004 es 0.000 et 0.000 er 0.001] ------- [367:0 709:0 32 0] [0 0] 0 0
s 5.600000000 _418_ AGT  --- 380 tcp 40 [0 0 0 0] [energy 99.994258 ei 0.004 es 0.000 et 0.000 er 0.001] ------- [418:0 436:0 32 0] [0 0] 0 0
s 5.700000000 _368_ AGT  --- 382 tcp 40 [0 0 0 0] [energy 99.993450 ei 0.004 es 0.000 et 0.000 er 0.002] ------- [368:0 710:0 32 0] [0 0] 0 0
s 5.800000000 _369_ AGT  --- 385 tcp 40 [0 0 0 0] [energy 99.993040 ei 0.004 es 0.000 et 0.001 er 0.002] ------- [369:0 711:0 32 0] [0 0] 0 0
s 5.800000000 _437_ AGT  --- 386 tcp 40 [0 0 0 0] [energy 99.993201 ei 0.004 es 0.000 et 0.001 er 0.002] ------- [437:0 455:0 32 0] [0 0] 0 0
s 5.900000000 _370_ AGT  --- 388 tcp 40 [0 0 0 0] [energy 99.992808 ei 0.004 es 0.000 et 0.001 er 0.002] ------- [370:0 712:0 32 0] [0 0] 0 0
s 6.000000000 _371_ AGT  --- 391 tcp 40 [0 0 0 0] [energy 99.992160 ei 0.004 es 0.000 et 0.001 er 0.003] ------- [371:0 713:0 32 0] [0 0] 0 0
s 6.000000000 _456_ AGT  --- 392 tcp 40 [0 0 0 0] [energy 99.992762 ei 0.004 es 0.000 et 0.001 er 0.002] ------- [456:0 474:0 32 0] [0 0] 0 0
s 6.100000000 _372_ AGT  --- 394 tcp 40 [0 0 0 0] [energy 99.991118 ei 0.004 es 0.000 et 0.001 er 0.004] ------- [372:0 714:0 32 0] [0 0] 0 0
s 6.200000000 _373_ AGT  --- 397 tcp 40 [0 0 0 0] [energy 99.990588 ei 0.004 es 0.000 et 0.001 er 0.004] ------- [373:0 715:0 32 0] [0 0] 0 0
s 6.200000000 _475_ AGT  --- 398 tcp 40 [0 0 0 0] [energy 99.991597 ei 0.004 es 0.000 et 0.001 er 0.003] ------- [475:0 493:0 32 0] [0 0] 0 0
s 6.300000000 _374_ AGT  --- 400 tcp 40 [0 0 0 0] [energy 99.990399 ei 0.004 es 0.000 et 0.001 er 0.004] ------- [374:0 716:0 32 0] [0 0] 0 0
s 6.400000000 _375_ AGT  --- 403 tcp 40 [0 0 0 0] [energy 99.989972 ei 0.004 es 0.000 et 0.001 er 0.004] ------- [375:0 717:0 32 0] [0 0] 0 0
s 6.400000000 _494_ AGT  --- 404 tcp 40 [0 0 0 0] [energy 99.990430 ei 0.004 es 0.000 et 0.001 er 0.004] ------- [494:0 512:0 32 0] [0 0] 0 0
s 6.500000000 _376_ AGT  --- 406 tcp 40 [0 0 0 0] [energy 99.989484 ei 0.004 es 0.000 et 0.001 er 0.005] ------- [376:0 718:0 32 0] [0 0] 0 0
s 6.600000000 _377_ AGT  --- 409 tcp 40 [0 0 0 0] [energy 99.989032 ei 0.005 es 0.000 et 0.001 er 0.005] ------- [377:0 719:0 32 0] [0 0] 0 0
s 6.600000000 _513_ AGT  --- 410 tcp 40 [0 0 0 0] [energy 99.990451 ei 0.005 es 0.000 et 0.001 er 0.004] ------- [513:0 531:0 32 0] [0 0] 0 0
s 6.700000000 _378_ AGT  --- 412 tcp 40 [0 0 0 0] [energy 99.988932 ei 0.005 es 0.000 et 0.002 er 0.005] ------- [378:0 720:0 32 0] [0 0] 0 0
s 6.800000000 _379_ AGT  --- 415 tcp 40 [0 0 0 0] [energy 99.990211 ei 0.005 es 0.000 et 0.001 er 0.004] ------- [379:0 721:0 32 0] [0 0] 0 0
s 6.800000000 _532_ AGT  --- 416 tcp 40 [0 0 0 0] [energy 99.990529 ei 0.005 es 0.000 et 0.001 er 0.004] ------- [532:0 550:0 32 0] [0 0] 0 0
s 7.000000000 _551_ AGT  --- 418 tcp 40 [0 0 0 0] [energy 99.990215 ei 0.005 es 0.000 et 0.000 er 0.005] ------- [551:0 569:0 32 0] [0 0] 0 0
s 7.200000000 _570_ AGT  --- 420 tcp 40 [0 0 0 0] [energy 99.989236 ei 0.005 es 0.000 et 0.002 er 0.004] ------- [570:0 588:0 32 0] [0 0] 0 0
r 7.351916363 _703_ AGT  --- 362 tcp 40 [0 2bf 2ac 800] [energy 99.990378 ei 0.005 es 0.000 et 0.001 er 0.003] ------- [361:0 703:0 11 703] [0 0] 20 0
s 7.351916363 _703_ AGT  --- 421 ack 40 [0 0 0 0] [energy 99.990378 ei 0.005 es 0.000 et 0.001 er 0.003] ------- [703:0 361:0 32 0] [0 0] 0 0
r 7.386452397 _721_ AGT  --- 415 tcp 40 [0 2d1 2be 800] [energy 99.991452 ei 0.005 es 0.000 et 0.001 er 0.003] ------- [379:0 721:0 5 721] [0 0] 26 0
s 7.386452397 _721_ AGT  --- 422 ack 40 [0 0 0 0] [energy 99.991452 ei 0.005 es 0.000 et 0.001 er 0.003] ------- [721:0 379:0 32 0] [0 0] 0 0
s 7.400000000 _589_ AGT  --- 424 tcp 40 [0 0 0 0] [energy 99.988560 ei 0.005 es 0.000 et 0.001 er 0.005] ------- [589:0 607:0 32 0] [0 0] 0 0
r 7.496235777 _379_ AGT  --- 422 ack 40 [0 17b 18e 800] [energy 99.988529 ei 0.005 es 0.000 et 0.002 er 0.005] ------- [721:0 379:0 5 379] [0 0] 26 0
s 7.496235777 _379_ AGT  --- 425 tcp 1040 [0 0 0 0] [energy 99.988529 ei 0.005 es 0.000 et 0.002 er 0.005] ------- [379:0 721:0 32 0] [1 0] 0 0
s 7.496235777 _379_ AGT  --- 426 tcp 1040 [0 0 0 0] [energy 99.988529 ei 0.005 es 0.000 et 0.002 er 0.005] ------- [379:0 721:0 32 0] [2 0] 0 0
s 7.600000000 _608_ AGT  --- 428 tcp 40 [0 0 0 0] [energy 99.988610 ei 0.005 es 0.000 et 0.000 er 0.006] ------- [608:0 626:0 32 0] [0 0] 0 0
r 7.621440017 _721_ AGT  --- 425 tcp 16 [0 2d1 2be 800] [energy 99.990985 ei 0.005 es 0.000 et 0.001 er 0.003] ------- [379:0 721:0 5 721] [1 0] 26 0
s 7.621440017 _721_ AGT  --- 429 ack 40 [0 0 0 0] [energy 99.990985 ei 0.005 es 0.000 et 0.001 er 0.003] ------- [721:0 379:0 32 0] [1 0] 0 0
s 7.641166537 _721_ AGT  --- 430 ack 40 [0 0 0 0] [energy 99.990723 ei 0.005 es 0.000 et 0.001 er 0.003] ------- [721:0 379:0 32 0] [2 0] 0 0
r 7.796449917 _379_ AGT  --- 429 ack 40 [0 17b 18e 800] [energy 99.987549 ei 0.005 es 0.000 et 0.002 er 0.005] ------- [721:0 379:0 5 379] [1 0] 26 0
s 7.796449917 _379_ AGT  --- 431 tcp 1040 [0 0 0 0] [energy 99.987549 ei 0.005 es 0.000 et 0.002 er 0.005] ------- [379:0 721:0 32 0] [3 0] 0 0
s 7.796449917 _379_ AGT  --- 432 tcp 1040 [0 0 0 0] [energy 99.987549 ei 0.005 es 0.000 et 0.002 er 0.005] ------- [379:0 721:0 32 0] [4 0] 0 0
s 7.800000000 _627_ AGT  --- 434 tcp 40 [0 0 0 0] [energy 99.987368 ei 0.005 es 0.000 et 0.002 er 0.005] ------- [627:0 645:0 32 0] [0 0] 0 0
r 7.832162697 _379_ AGT  --- 430 ack 40 [0 17b 18e 800] [energy 99.987059 ei 0.005 es 0.000 et 0.002 er 0.006] ------- [721:0 379:0 5 379] [2 0] 26 0
s 7.832162697 _379_ AGT  --- 435 tcp 1040 [0 0 0 0] [energy 99.987059 ei 0.005 es 0.000 et 0.002 er 0.006] ------- [379:0 721:0 32 0] [5 0] 0 0
s 7.832162697 _379_ AGT  --- 436 tcp 1040 [0 0 0 0] [energy 99.987059 ei 0.005 es 0.000 et 0.002 er 0.006] ------- [379:0 721:0 32 0] [6 0] 0 0
s 7.906517297 _721_ AGT  --- 437 ack 40 [0 0 0 0] [energy 99.990222 ei 0.006 es 0.000 et 0.001 er 0.003] ------- [721:0 379:0 32 0] [3 0] 0 0
s 7.922247557 _721_ AGT  --- 438 ack 40 [0 0 0 0] [energy 99.989932 ei 0.006 es 0.000 et 0.001 er 0.003] ------- [721:0 379:0 32 0] [4 0] 0 0
s 7.936442077 _721_ AGT  --- 439 ack 40 [0 0 0 0] [energy 99.989594 ei 0.006 es 0.000 et 0.001 er 0.003] ------- [721:0 379:0 32 0] [5 0] 0 0
s 7.956268597 _721_ AGT  --- 440 ack 40 [0 0 0 0] [energy 99.989175 ei 0.006 es 0.000 et 0.002 er 0.004] ------- [721:0 379:0 32 0] [6 0] 0 0
s 8.000000000 _646_ AGT  --- 442 tcp 40 [0 0 0 0] [energy 99.985902 ei 0.005 es 0.000 et 0.002 er 0.007] ------- [646:0 664:0 32 0] [0 0] 0 0
s 8.000000000 _361_ AGT  --- 444 tcp 40 [0 0 0 0] [energy 99.985901 ei 0.006 es 0.000 et 0.002 er 0.006] ------- [361:0 703:0 32 0] [0 0] 0 0
r 8.057212257 _710_ AGT  --- 382 tcp 40 [0 2c6 2b3 800] [energy 99.987463 ei 0.006 es 0.000 et 0.002 er 0.005] ------- [368:0 710:0 5 710] [0 0] 26 0
s 8.057212257 _710_ AGT  --- 445 ack 40 [0 0 0 0] [energy 99.987463 ei 0.006 es 0.000 et 0.002 er 0.005] ------- [710:0 368:0 32 0] [0 0] 0 0
r 8.064755457 _379_ AGT  --- 437 ack 40 [0 17b 18e 800] [energy 99.986612 ei 0.006 es 0.000 et 0.002 er 0.006] ------- [721:0 379:0 5 379] [3 0] 26 0
s 8.064755457 _379_ AGT  --- 446 tcp 1040 [0 0 0 0] [energy 99.986612 ei 0.006 es 0.000 et 0.002 er 0.006] ------- [379:0 721:0 32 0] [7 0] 0 0
s 8.064755457 _379_ AGT  --- 447 tcp 1040 [0 0 0 0] [energy 99.986612 ei 0.006 es 0.000 et 0.002 er 0.006] ------- [379:0 721:0 32 0] [8 0] 0 0
r 8.065610427 _707_ AGT  --- 373 tcp 40 [0 2c3 2c2 800] [energy 99.984884 ei 0.006 es 0.000 et 0.002 er 0.007] ------- [365:0 707:0 1 707] [0 0] 30 0
s 8.065610427 _707_ AGT  --- 448 ack 40 [0 0 0 0] [energy 99.984884 ei 0.006 es 0.000 et 0.002 er 0.007] ------- [707:0 365:0 32 0] [0 0] 0 0
s 8.100000000 _362_ AGT  --- 450 tcp 40 [0 0 0 0] [energy 99.983527 ei 0.006 es 0.000 et 0.002 er 0.008] ------- [362:0 704:0 32 0] [0 0] 0 0
s 8.200000000 _665_ AGT  --- 452 tcp 40 [0 0 0 0] [energy 99.984830 ei 0.006 es 0.000 et 0.002 er 0.008] ------- [665:0 683:0 32 0] [0 0] 0 0
s 8.200000000 _363_ AGT  --- 455 tcp 40 [0 0 0 0] [energy 99.983365 ei 0.006 es 0.000 et 0.003 er 0.008] ------- [363:0 705:0 32 0] [0 0] 0 0
s 8.200000000 _380_ AGT  --- 456 tcp 40 [0 0 0 0] [energy 99.982757 ei 0.006 es 0.000 et 0.003 er 0.009] ------- [380:0 398:0 32 0] [0 0] 0 0
r 8.234671637 _368_ AGT  --- 445 ack 40 [0 170 171 800] [energy 99.983112 ei 0.006 es 0.000 et 0.003 er 0.009] ------- [710:0 368:0 5 368] [0 0] 26 0
s 8.234671637 _368_ AGT  --- 457 tcp 1040 [0 0 0 0] [energy 99.983112 ei 0.006 es 0.000 et 0.003 er 0.009] ------- [368:0 710:0 32 0] [1 0] 0 0
s 8.234671637 _368_ AGT  --- 458 tcp 1040 [0 0 0 0] [energy 99.983112 ei 0.006 es 0.000 et 0.003 er 0.009] ------- [368:0 710:0 32 0] [2 0] 0 0
s 8.249828357 _721_ AGT  --- 459 ack 40 [0 0 0 0] [energy 99.988088 ei 0.006 es 0.000 et 0.002 er 0.004] ------- [721:0 379:0 32 0] [6 0] 0 0
s 8.300000000 _364_ AGT  --- 461 tcp 40 [0 0 0 0] [energy 99.983362 ei 0.006 es 0.000 et 0.003 er 0.008] ------- [364:0 706:0 32 0] [0 0] 0 0
r 8.300017020 _365_ AGT  --- 448 ack 40 [0 16d 16c 800] [energy 99.987617 ei 0.006 es 0.000 et 0.002 er 0.004] ------- [707:0 365:0 3 365] [0 0] 28 0
s 8.300017020 _365_ AGT  --- 462 tcp 1040 [0 0 0 0] [energy 99.987617 ei 0.006 es 0.000 et 0.002 er 0.004] ------- [365:0 707:0 32 0] [1 0] 0 0
s 8.300017020 _365_ AGT  --- 463 tcp 1040 [0 0 0 0] [energy 99.987617 ei 0.006 es 0.000 et 0.002 er 0.004] ------- [365:0 707:0 32 0] [2 0] 0 0
r 8.315562147 _703_ AGT  --- 444 tcp 40 [0 2bf 2ac 800] [energy 99.987580 ei 0.006 es 0.000 et 0.002 er 0.005] ------- [361:0 703:0 11 703] [0 0] 20 0
s 8.315562147 _703_ AGT  --- 464 ack 40 [0 0 0 0] [energy 99.987580 ei 0.006 es 0.000 et 0.002 er 0.005] ------- [703:0 361:0 32 0] [0 0] 0 0
s 8.345541057 _710_ AGT  --- 465 ack 40 [0 0 0 0] [energy 99.985390 ei 0.006 es 0.000 et 0.002 er 0.006] ------- [710:0 368:0 32 0] [1 0] 0 0
s 8.374719837 _710_ AGT  --- 466 ack 40 [0 0 0 0] [energy 99.985122 ei 0.006 es 0.000 et 0.003 er 0.007] ------- [710:0 368:0 32 0] [2 0] 0 0
r 8.381463453 _645_ AGT  --- 434 tcp 40 [0 285 284 800] [energy 99.986183 ei 0.006 es 0.000 et 0.002 er 0.006] ------- [627:0 645:0 5 645] [0 0] 26 0
s 8.381463453 _645_ AGT  --- 467 ack 40 [0 0 0 0] [energy 99.986183 ei 0.006 es 0.000 et 0.002 er 0.006] ------- [645:0 627:0 32 0] [0 0] 0 0
s 8.400000000 _684_ AGT  --- 469 tcp 40 [0 0 0 0] [energy 99.984886 ei 0.006 es 0.000 et 0.002 er 0.007] ------- [684:0 702:0 32 0] [0 0] 0 0
s 8.400000000 _399_ AGT  --- 472 tcp 40 [0 0 0 0] [energy 99.981503 ei 0.006 es 0.000 et 0.004 er 0.009] ------- [399:0 417:0 32 0] [0 0] 0 0
s 8.419614920 _707_ AGT  --- 473 ack 40 [0 0 0 0] [energy 99.983100 ei 0.006 es 0.000 et 0.002 er 0.009] ------- [707:0 365:0 32 0] [1 0] 0 0
s 8.500000000 _366_ AGT  --- 475 tcp 40 [0 0 0 0] [energy 99.986397 ei 0.006 es 0.000 et 0.000 er 0.008] ------- [366:0 708:0 32 0] [0 0] 0 0
r 8.579369347 _711_ AGT  --- 385 tcp 40 [0 2c7 2c8 800] [energy 99.983057 ei 0.006 es 0.000 et 0.002 er 0.009] ------- [369:0 711:0 1 711] [0 0] 30 0
s 8.579369347 _711_ AGT  --- 476 ack 40 [0 0 0 0] [energy 99.983057 ei 0.006 es 0.000 et 0.002 er 0.009] ------- [711:0 369:0 32 0] [0 0] 0 0
s 8.600000000 _367_ AGT  --- 479 tcp 40 [0 0 0 0] [energy 99.984602 ei 0.006 es 0.000 et 0.002 er 0.007] ------- [367:0 709:0 32 0] [0 0] 0 0
s 8.600000000 _418_ AGT  --- 480 tcp 40 [0 0 0 0] [energy 99.977134 ei 0.006 es 0.000 et 0.004 er 0.013] ------- [418:0 436:0 32 0] [0 0] 0 0
r 8.647852562 _379_ AGT  --- 440 ack 40 [0 17b 17a 800] [energy 99.984150 ei 0.006 es 0.000 et 0.003 er 0.007] ------- [721:0 379:0 7 379] [6 0] 24 0
s 8.647852562 _379_ AGT  --- 481 tcp 1040 [0 0 0 0] [energy 99.984150 ei 0.006 es 0.000 et 0.003 er 0.007] ------- [379:0 721:0 32 0] [9 0] 0 0
s 8.647852562 _379_ AGT  --- 482 tcp 1040 [0 0 0 0] [energy 99.984150 ei 0.006 es 0.000 et 0.003 er 0.007] ------- [379:0 721:0 32 0] [10 0] 0 0
s 8.647852562 _379_ AGT  --- 483 tcp 1040 [0 0 0 0] [energy 99.984150 ei 0.006 es 0.000 et 0.003 er 0.007] ------- [379:0 721:0 32 0] [11 0] 0 0
s 8.647852562 _379_ AGT  --- 484 tcp 1040 [0 0 0 0] [energy 99.984150 ei 0.006 es 0.000 et 0.003 er 0.007] ------- [379:0 721:0 32 0] [12 0] 0 0
r 8.764812027 _369_ AGT  --- 476 ack 40 [0 171 184 800] [energy 99.979872 ei 0.006 es 0.000 et 0.003 er 0.011] ------- [711:0 369:0 1 369] [0 0] 30 0
s 8.764812027 _369_ AGT  --- 486 tcp 1040 [0 0 0 0] [energy 99.979872 ei 0.006 es 0.000 et 0.003 er 0.011] ------- [369:0 711:0 32 0] [1 0] 0 0
s 8.764812027 _369_ AGT  --- 487 tcp 1040 [0 0 0 0] [energy 99.979872 ei 0.006 es 0.000 et 0.003 er 0.011] ------- [369:0 711:0 32 0] [2 0] 0 0
s 8.800000000 _437_ AGT  --- 490 tcp 40 [0 0 0 0] [energy 99.977277 ei 0.006 es 0.000 et 0.004 er 0.013] ------- [437:0 455:0 32 0] [0 0] 0 0
r 8.823094125 _683_ AGT  --- 452 tcp 40 [0 2ab 298 800] [energy 99.983213 ei 0.006 es 0.000 et 0.003 er 0.008] ------- [665:0 683:0 3 683] [0 0] 28 0
s 8.823094125 _683_ AGT  --- 491 ack 40 [0 0 0 0] [energy 99.983213 ei 0.006 es 0.000 et 0.003 er 0.008] ------- [683:0 665:0 32 0] [0 0] 0 0
s 8.900000000 _370_ AGT  --- 493 tcp 40 [0 0 0 0] [energy 99.980650 ei 0.006 es 0.000 et 0.003 er 0.011] ------- [370:0 712:0 32 0] [0 0] 0 0
s 8.918628707 _711_ AGT  --- 494 ack 40 [0 0 0 0] [energy 99.981994 ei 0.006 es 0.000 et 0.003 er 0.009] ------- [711:0 369:0 32 0] [1 0] 0 0
s 9.000000000 _371_ AGT  --- 497 tcp 40 [0 0 0 0] [energy 99.980905 ei 0.006 es 0.000 et 0.003 er 0.010] ------- [371:0 713:0 32 0] [0 0] 0 0
s 9.000000000 _456_ AGT  --- 498 tcp 40 [0 0 0 0] [energy 99.979454 ei 0.006 es 0.000 et 0.003 er 0.011] ------- [456:0 474:0 32 0] [0 0] 0 0
r 9.075925387 _417_ AGT  --- 472 tcp 40 [0 1a1 18e 800] [energy 99.979288 ei 0.006 es 0.000 et 0.003 er 0.011] ------- [399:0 417:0 7 417] [0 0] 24 0
s 9.075925387 _417_ AGT  --- 499 ack 40 [0 0 0 0] [energy 99.979288 ei 0.006 es 0.000 et 0.003 er 0.011] ------- [417:0 399:0 32 0] [0 0] 0 0
r 9.080274607 _369_ AGT  --- 494 ack 40 [0 171 184 800] [energy 99.979399 ei 0.006 es 0.000 et 0.003 er 0.011] ------- [711:0 369:0 1 369] [1 0] 30 0
s 9.080274607 _369_ AGT  --- 500 tcp 1040 [0 0 0 0] [energy 99.979399 ei 0.006 es 0.000 et 0.003 er 0.011] ------- [369:0 711:0 32 0] [3 0] 0 0
s 9.080274607 _369_ AGT  --- 501 tcp 1040 [0 0 0 0] [energy 99.979399 ei 0.006 es 0.000 et 0.003 er 0.011] ------- [369:0 711:0 32 0] [4 0] 0 0
s 9.100000000 _372_ AGT  --- 503 tcp 40 [0 0 0 0] [energy 99.979546 ei 0.006 es 0.000 et 0.003 er 0.011] ------- [372:0 714:0 32 0] [0 0] 0 0
r 9.174748940 _713_ AGT  --- 497 tcp 40 [0 2c9 2ca 800] [energy 99.980176 ei 0.006 es 0.000 et 0.003 er 0.010] ------- [371:0 713:0 5 713] [0 0] 26 0
s 9.174748940 _713_ AGT  --- 504 ack 40 [0 0 0 0] [energy 99.980176 ei 0.006 es 0.000 et 0.003 er 0.010] ------- [713:0 371:0 32 0] [0 0] 0 0
s 9.200000000 _373_ AGT  --- 507 tcp 40 [0 0 0 0] [energy 99.977803 ei 0.006 es 0.000 et 0.004 er 0.012] ------- [373:0 715:0 32 0] [0 0] 0 0
s 9.200000000 _475_ AGT  --- 508 tcp 40 [0 0 0 0] [energy 99.978585 ei 0.006 es 0.000 et 0.003 er 0.012] ------- [475:0 493:0 32 0] [0 0] 0 0
r 9.218512897 _714_ AGT  --- 394 tcp 40 [0 2ca 2b7 800] [energy 99.979695 ei 0.006 es 0.000 et 0.003 er 0.011] ------- [372:0 714:0 1 714] [0 0] 30 0
s 9.218512897 _714_ AGT  --- 509 ack 40 [0 0 0 0] [energy 99.979695 ei 0.006 es 0.000 et 0.003 er 0.011] ------- [714:0 372:0 32 0] [0 0] 0 0
s 9.300000000 _374_ AGT  --- 511 tcp 40 [0 0 0 0] [energy 99.978223 ei 0.006 es 0.000 et 0.003 er 0.012] ------- [374:0 716:0 32 0] [0 0] 0 0
r 9.333044320 _371_ AGT  --- 504 ack 40 [0 173 186 800] [energy 99.979787 ei 0.006 es 0.000 et 0.003 er 0.011] ------- [713:0 371:0 5 371] [0 0] 26 0
s 9.333044320 _371_ AGT  --- 512 tcp 1040 [0 0 0 0] [energy 99.979787 ei 0.006 es 0.000 et 0.003 er 0.011] ------- [371:0 713:0 32 0] [1 0] 0 0
r 9.369001135 _372_ AGT  --- 509 ack 40 [0 174 175 800] [energy 99.978376 ei 0.006 es 0.000 et 0.003 er 0.012] ------- [714:0 372:0 3 372] [0 0] 28 0
s 9.369001135 _372_ AGT  --- 513 tcp 1040 [0 0 0 0] [energy 99.978376 ei 0.006 es 0.000 et 0.003 er 0.012] ------- [372:0 714:0 32 0] [1 0] 0 0
r 9.397760630 _550_ AGT  --- 416 tcp 40 [0 226 239 800] [energy 99.980571 ei 0.006 es 0.000 et 0.003 er 0.010] ------- [532:0 550:0 11 550] [0 0] 20 0
s 9.397760630 _550_ AGT  --- 514 ack 40 [0 0 0 0] [energy 99.980571 ei 0.006 es 0.000 et 0.003 er 0.010] ------- [550:0 532:0 32 0] [0 0] 0 0
s 9.400000000 _375_ AGT  --- 517 tcp 40 [0 0 0 0] [energy 99.979310 ei 0.006 es 0.000 et 0.003 er 0.011] ------- [375:0 717:0 32 0] [0 0] 0 0
s 9.400000000 _494_ AGT  --- 518 tcp 40 [0 0 0 0] [energy 99.978410 ei 0.006 es 0.000 et 0.004 er 0.012] ------- [494:0 512:0 32 0] [0 0] 0 0
r 9.416436955 _474_ AGT  --- 498 tcp 40 [0 1da 1c7 800] [energy 99.977670 ei 0.006 es 0.000 et 0.004 er 0.012] ------- [456:0 474:0 1 474] [0 0] 30 0
s 9.416436955 _474_ AGT  --- 519 ack 40 [0 0 0 0] [energy 99.977670 ei 0.006 es 0.000 et 0.004 er 0.012] ------- [474:0 456:0 32 0] [0 0] 0 0
s 9.432646576 _713_ AGT  --- 520 ack 40 [0 0 0 0] [energy 99.979524 ei 0.006 es 0.000 et 0.003 er 0.011] ------- [713:0 371:0 32 0] [1 0] 0 0
r 9.491691230 _532_ AGT  --- 514 ack 40 [0 214 215 800] [energy 99.982001 ei 0.007 es 0.000 et 0.003 er 0.008] ------- [550:0 532:0 11 532] [0 0] 20 0
s 9.491691230 _532_ AGT  --- 521 tcp 1040 [0 0 0 0] [energy 99.982001 ei 0.007 es 0.000 et 0.003 er 0.008] ------- [532:0 550:0 32 0] [1 0] 0 0
s 9.491691230 _532_ AGT  --- 522 tcp 1040 [0 0 0 0] [energy 99.982001 ei 0.007 es 0.000 et 0.003 er 0.008] ------- [532:0 550:0 32 0] [2 0] 0 0
s 9.500000000 _376_ AGT  --- 524 tcp 40 [0 0 0 0] [energy 99.979756 ei 0.006 es 0.000 et 0.003 er 0.011] ------- [376:0 718:0 32 0] [0 0] 0 0
r 9.515821640 _512_ AGT  --- 518 tcp 40 [0 200 1ff 800] [energy 99.979782 ei 0.006 es 0.000 et 0.003 er 0.011] ------- [494:0 512:0 5 512] [0 0] 26 0
s 9.515821640 _512_ AGT  --- 525 ack 40 [0 0 0 0] [energy 99.979782 ei 0.006 es 0.000 et 0.003 er 0.011] ------- [512:0 494:0 32 0] [0 0] 0 0
r 9.523907815 _456_ AGT  --- 519 ack 40 [0 1c8 1b5 800] [energy 99.978260 ei 0.006 es 0.000 et 0.004 er 0.012] ------- [474:0 456:0 9 456] [0 0] 22 0
s 9.523907815 _456_ AGT  --- 526 tcp 1040 [0 0 0 0] [energy 99.978260 ei 0.006 es 0.000 et 0.004 er 0.012] ------- [456:0 474:0 32 0] [1 0] 0 0
r 9.540657286 _588_ AGT  --- 420 tcp 40 [0 24c 24b 800] [energy 99.982323 ei 0.007 es 0.000 et 0.002 er 0.009] ------- [570:0 588:0 1 588] [0 0] 30 0
s 9.540657286 _588_ AGT  --- 527 ack 40 [0 0 0 0] [energy 99.982323 ei 0.007 es 0.000 et 0.002 er 0.009] ------- [588:0 570:0 32 0] [0 0] 0 0
r 9.547229956 _371_ AGT  --- 520 ack 40 [0 173 186 800] [energy 99.979393 ei 0.007 es 0.000 et 0.003 er 0.011] ------- [713:0 371:0 5 371] [1 0] 26 0
s 9.547229956 _371_ AGT  --- 528 tcp 1040 [0 0 0 0] [energy 99.979393 ei 0.007 es 0.000 et 0.003 er 0.011] ------- [371:0 713:0 32 0] [2 0] 0 0
s 9.547229956 _371_ AGT  --- 529 tcp 1040 [0 0 0 0] [energy 99.979393 ei 0.007 es 0.000 et 0.003 er 0.011] ------- [371:0 713:0 32 0] [3 0] 0 0
s 9.564338350 _550_ AGT  --- 530 ack 40 [0 0 0 0] [energy 99.980264 ei 0.007 es 0.000 et 0.003 er 0.010] ------- [550:0 532:0 32 0] [1 0] 0 0
s 9.597741130 _550_ AGT  --- 531 ack 40 [0 0 0 0] [energy 99.980052 ei 0.007 es 0.000 et 0.003 er 0.010] ------- [550:0 532:0 32 0] [2 0] 0 0
s 9.600000000 _377_ AGT  --- 534 tcp 40 [0 0 0 0] [energy 99.978603 ei 0.006 es 0.000 et 0.003 er 0.012] ------- [377:0 719:0 32 0] [0 0] 0 0
s 9.600000000 _513_ AGT  --- 535 tcp 40 [0 0 0 0] [energy 99.981104 ei 0.007 es 0.000 et 0.003 er 0.009] ------- [513:0 531:0 32 0] [0 0] 0 0
r 9.644613020 _494_ AGT  --- 525 ack 40 [0 1ee 1ef 800] [energy 99.977510 ei 0.007 es 0.000 et 0.004 er 0.012] ------- [512:0 494:0 5 494] [0 0] 26 0
s 9.644613020 _494_ AGT  --- 536 tcp 1040 [0 0 0 0] [energy 99.977510 ei 0.007 es 0.000 et 0.004 er 0.012] ------- [494:0 512:0 32 0] [1 0] 0 0
s 9.652348909 _713_ AGT  --- 537 ack 40 [0 0 0 0] [energy 99.978884 ei 0.007 es 0.000 et 0.003 er 0.011] ------- [713:0 371:0 32 0] [2 0] 0 0
r 9.694737186 _570_ AGT  --- 527 ack 40 [0 23a 23b 800] [energy 99.983021 ei 0.007 es 0.000 et 0.003 er 0.007] ------- [588:0 570:0 1 570] [0 0] 30 0
s 9.694737186 _570_ AGT  --- 538 tcp 1040 [0 0 0 0] [energy 99.983021 ei 0.007 es 0.000 et 0.003 er 0.007] ------- [570:0 588:0 32 0] [1 0] 0 0
s 9.694737186 _570_ AGT  --- 539 tcp 1040 [0 0 0 0] [energy 99.983021 ei 0.007 es 0.000 et 0.003 er 0.007] ------- [570:0 588:0 32 0] [2 0] 0 0
s 9.700000000 _378_ AGT  --- 541 tcp 40 [0 0 0 0] [energy 99.978639 ei 0.007 es 0.000 et 0.003 er 0.012] ------- [378:0 720:0 32 0] [0 0] 0 0
r 9.778754289 _371_ AGT  --- 537 ack 40 [0 173 186 800] [energy 99.978309 ei 0.007 es 0.000 et 0.003 er 0.012] ------- [713:0 371:0 5 371] [2 0] 26 0
s 9.778754289 _371_ AGT  --- 542 tcp 1040 [0 0 0 0] [energy 99.978309 ei 0.007 es 0.000 et 0.003 er 0.012] ------- [371:0 713:0 32 0] [4 0] 0 0
s 9.818026126 _588_ AGT  --- 545 ack 40 [0 0 0 0] [energy 99.981501 ei 0.007 es 0.000 et 0.003 er 0.009] ------- [588:0 570:0 32 0] [1 0] 0 0
s 10.000000000 _551_ AGT  --- 547 tcp 40 [0 0 0 0] [energy 99.982424 ei 0.007 es 0.000 et 0.000 er 0.011] ------- [551:0 569:0 32 0] [0 0] 0 0
s 10.338754289 _371_ AGT  --- 549 tcp 1040 [0 0 0 0] [energy 99.977588 ei 0.007 es 0.000 et 0.003 er 0.012] ------- [371:0 713:0 32 0] [3 0] 0 0
s 10.400000000 _589_ AGT  --- 551 tcp 40 [0 0 0 0] [energy 99.982708 ei 0.007 es 0.000 et 0.002 er 0.008] ------- [589:0 607:0 32 0] [0 0] 0 0
s 10.600000000 _608_ AGT  --- 553 tcp 40 [0 0 0 0] [energy 99.982340 ei 0.007 es 0.000 et 0.000 er 0.010] ------- [608:0 626:0 32 0] [0 0] 0 0
s 10.717852562 _379_ AGT  --- 554 tcp 1040 [0 0 0 0] [energy 99.980365 ei 0.007 es 0.000 et 0.003 er 0.009] ------- [379:0 721:0 32 0] [7 0] 0 0
s 10.771436549 _713_ AGT  --- 555 ack 40 [0 0 0 0] [energy 99.976228 ei 0.007 es 0.000 et 0.004 er 0.013] ------- [713:0 371:0 32 0] [3 0] 0 0
s 10.800000000 _627_ AGT  --- 557 tcp 40 [0 0 0 0] [energy 99.979650 ei 0.007 es 0.000 et 0.003 er 0.010] ------- [627:0 645:0 32 0] [0 0] 0 0
r 10.872479669 _371_ AGT  --- 555 ack 40 [0 173 186 800] [energy 99.976620 ei 0.007 es 0.000 et 0.003 er 0.012] ------- [713:0 371:0 7 371] [3 0] 24 0
s 10.872479669 _371_ AGT  --- 558 tcp 1040 [0 0 0 0] [energy 99.976620 ei 0.007 es 0.000 et 0.003 er 0.012] ------- [371:0 713:0 32 0] [4 0] 0 0
s 10.872479669 _371_ AGT  --- 559 tcp 1040 [0 0 0 0] [energy 99.976620 ei 0.007 es 0.000 et 0.003 er 0.012] ------- [371:0 713:0 32 0] [5 0] 0 0
s 10.961277569 _713_ AGT  --- 560 ack 40 [0 0 0 0] [energy 99.975904 ei 0.007 es 0.000 et 0.004 er 0.013] ------- [713:0 371:0 32 0] [4 0] 0 0
s 10.981012089 _713_ AGT  --- 561 ack 40 [0 0 0 0] [energy 99.975584 ei 0.007 es 0.000 et 0.004 er 0.013] ------- [713:0 371:0 32 0] [5 0] 0 0
s 11.000000000 _646_ AGT  --- 563 tcp 40 [0 0 0 0] [energy 99.976519 ei 0.007 es 0.000 et 0.004 er 0.012] ------- [646:0 664:0 32 0] [0 0] 0 0
r 11.078398949 _371_ AGT  --- 560 ack 40 [0 173 186 800] [energy 99.976224 ei 0.008 es 0.000 et 0.004 er 0.013] ------- [713:0 371:0 7 371] [4 0] 24 0
s 11.078398949 _371_ AGT  --- 564 tcp 1040 [0 0 0 0] [energy 99.976224 ei 0.008 es 0.000 et 0.004 er 0.013] ------- [371:0 713:0 32 0] [6 0] 0 0
r 11.098837469 _371_ AGT  --- 561 ack 40 [0 173 186 800] [energy 99.976044 ei 0.008 es 0.000 et 0.004 er 0.013] ------- [713:0 371:0 7 371] [5 0] 24 0
s 11.098837469 _371_ AGT  --- 565 tcp 1040 [0 0 0 0] [energy 99.976044 ei 0.008 es 0.000 et 0.004 er 0.013] ------- [371:0 713:0 32 0] [7 0] 0 0
r 11.136721900 _664_ AGT  --- 563 tcp 40 [0 298 285 800] [energy 99.978931 ei 0.008 es 0.000 et 0.003 er 0.011] ------- [646:0 664:0 3 664] [0 0] 28 0
s 11.136721900 _664_ AGT  --- 566 ack 40 [0 0 0 0] [energy 99.978931 ei 0.008 es 0.000 et 0.003 er 0.011] ------- [664:0 646:0 32 0] [0 0] 0 0
s 11.200000000 _665_ AGT  --- 568 tcp 40 [0 0 0 0] [energy 99.977032 ei 0.008 es 0.000 et 0.003 er 0.012] ------- [665:0 683:0 32 0] [0 0] 0 0
s 11.227244149 _713_ AGT  --- 569 ack 40 [0 0 0 0] [energy 99.974884 ei 0.008 es 0.000 et 0.004 er 0.013] ------- [713:0 371:0 32 0] [6 0] 0 0
r 11.232926409 _713_ AGT  --- 565 tcp 16 [0 2c9 2c8 800] [energy 99.974762 ei 0.008 es 0.000 et 0.004 er 0.014] ------- [371:0 713:0 7 713] [7 0] 24 0
s 11.232926409 _713_ AGT  --- 570 ack 40 [0 0 0 0] [energy 99.974762 ei 0.008 es 0.000 et 0.004 er 0.014] ------- [713:0 371:0 32 0] [7 0] 0 0
r 11.267803800 _646_ AGT  --- 566 ack 40 [0 286 287 800] [energy 99.975762 ei 0.008 es 0.000 et 0.004 er 0.013] ------- [664:0 646:0 3 646] [0 0] 28 0
s 11.267803800 _646_ AGT  --- 571 tcp 1040 [0 0 0 0] [energy 99.975762 ei 0.008 es 0.000 et 0.004 er 0.013] ------- [646:0 664:0 32 0] [1 0] 0 0
r 11.359675789 _371_ AGT  --- 569 ack 40 [0 173 186 800] [energy 99.975555 ei 0.008 es 0.000 et 0.004 er 0.013] ------- [713:0 371:0 7 371] [6 0] 24 0
s 11.359675789 _371_ AGT  --- 572 tcp 1040 [0 0 0 0] [energy 99.975555 ei 0.008 es 0.000 et 0.004 er 0.013] ------- [371:0 713:0 32 0] [8 0] 0 0
s 11.359675789 _371_ AGT  --- 573 tcp 1040 [0 0 0 0] [energy 99.975555 ei 0.008 es 0.000 et 0.004 er 0.013] ------- [371:0 713:0 32 0] [9 0] 0 0
r 11.374295440 _664_ AGT  --- 571 tcp 16 [0 298 285 800] [energy 99.978573 ei 0.008 es 0.000 et 0.003 er 0.011] ------- [646:0 664:0 3 664] [1 0] 28 0
s 11.374295440 _664_ AGT  --- 574 ack 40 [0 0 0 0] [energy 99.978573 ei 0.008 es 0.000 et 0.003 er 0.011] ------- [664:0 646:0 32 0] [1 0] 0 0
s 11.400000000 _684_ AGT  --- 577 tcp 40 [0 0 0 0] [energy 99.979070 ei 0.008 es 0.000 et 0.003 er 0.010] ------- [684:0 702:0 32 0] [0 0] 0 0
r 11.490517198 _683_ AGT  --- 568 tcp 40 [0 2ab 2aa 800] [energy 99.978949 ei 0.008 es 0.000 et 0.003 er 0.010] ------- [665:0 683:0 3 683] [0 0] 28 0
s 11.490517198 _683_ AGT  --- 578 ack 40 [0 0 0 0] [energy 99.978949 ei 0.008 es 0.000 et 0.003 er 0.010] ------- [683:0 665:0 32 0] [0 0] 0 0
r 11.668272961 _702_ AGT  --- 577 tcp 40 [0 2be 2bd 800] [energy 99.979292 ei 0.008 es 0.000 et 0.003 er 0.010] ------- [684:0 702:0 9 702] [0 0] 22 0
s 11.668272961 _702_ AGT  --- 584 ack 40 [0 0 0 0] [energy 99.979292 ei 0.008 es 0.000 et 0.003 er 0.010] ------- [702:0 684:0 32 0] [0 0] 0 0
r 11.815056861 _684_ AGT  --- 584 ack 40 [0 2ac 299 800] [energy 99.977264 ei 0.008 es 0.000 et 0.003 er 0.011] ------- [702:0 684:0 1 684] [0 0] 30 0
s 11.815056861 _684_ AGT  --- 590 tcp 1040 [0 0 0 0] [energy 99.977264 ei 0.008 es 0.000 et 0.003 er 0.011] ------- [684:0 702:0 32 0] [1 0] 0 0
s 11.849675789 _371_ AGT  --- 592 tcp 1040 [0 0 0 0] [energy 99.974175 ei 0.008 es 0.000 et 0.004 er 0.014] ------- [371:0 713:0 32 0] [7 0] 0 0
s 11.897297721 _702_ AGT  --- 594 ack 40 [0 0 0 0] [energy 99.978734 ei 0.008 es 0.000 et 0.003 er 0.010] ------- [702:0 684:0 32 0] [1 0] 0 0
r 12.031281621 _684_ AGT  --- 594 ack 40 [0 2ac 299 800] [energy 99.976945 ei 0.008 es 0.000 et 0.003 er 0.011] ------- [702:0 684:0 1 684] [1 0] 30 0
s 12.031281621 _684_ AGT  --- 1015 tcp 1040 [0 0 0 0] [energy 99.976945 ei 0.008 es 0.000 et 0.003 er 0.011] ------- [684:0 702:0 32 0] [2 0] 0 0
s 12.031281621 _684_ AGT  --- 1016 tcp 1040 [0 0 0 0] [energy 99.976945 ei 0.008 es 0.000 et 0.003 er 0.011] ------- [684:0 702:0 32 0] [3 0] 0 0
s 12.104888741 _702_ AGT  --- 1132 ack 40 [0 0 0 0] [energy 99.978398 ei 0.008 es 0.000 et 0.003 er 0.010] ------- [702:0 684:0 32 0] [2 0] 0 0
s 12.120811001 _702_ AGT  --- 1134 ack 40 [0 0 0 0] [energy 99.978130 ei 0.008 es 0.000 et 0.003 er 0.011] ------- [702:0 684:0 32 0] [3 0] 0 0
r 12.265282901 _684_ AGT  --- 1132 ack 40 [0 2ac 299 800] [energy 99.975960 ei 0.008 es 0.000 et 0.004 er 0.012] ------- [702:0 684:0 1 684] [2 0] 30 0
s 12.265282901 _684_ AGT  --- 1153 tcp 1040 [0 0 0 0] [energy 99.975960 ei 0.008 es 0.000 et 0.004 er 0.012] ------- [684:0 702:0 32 0] [4 0] 0 0
r 12.265623171 _493_ AGT  --- 398 tcp 40 [0 1ed 1ec 800] [energy 99.973254 ei 0.008 es 0.000 et 0.004 er 0.014] ------- [475:0 493:0 5 493] [0 0] 26 0
s 12.265623171 _493_ AGT  --- 1154 ack 40 [0 0 0 0] [energy 99.973254 ei 0.008 es 0.000 et 0.004 er 0.014] ------- [493:0 475:0 32 0] [0 0] 0 0
r 12.340205501 _702_ AGT  --- 1153 tcp 16 [0 2be 2bd 800] [energy 99.977533 ei 0.009 es 0.000 et 0.003 er 0.011] ------- [684:0 702:0 11 702] [4 0] 20 0
s 12.340205501 _702_ AGT  --- 1160 ack 40 [0 0 0 0] [energy 99.977533 ei 0.009 es 0.000 et 0.003 er 0.011] ------- [702:0 684:0 32 0] [4 0] 0 0
r 12.403225594 _712_ AGT  --- 388 tcp 40 [0 2c8 2b5 800] [energy 99.971353 ei 0.008 es 0.000 et 0.005 er 0.015] ------- [370:0 712:0 7 712] [0 0] 24 0
s 12.403225594 _712_ AGT  --- 1169 ack 40 [0 0 0 0] [energy 99.971353 ei 0.008 es 0.000 et 0.005 er 0.015] ------- [712:0 370:0 32 0] [0 0] 0 0
r 12.422497594 _712_ AGT  --- 493 tcp 40 [0 2c8 2b5 800] [energy 99.971124 ei 0.008 es 0.000 et 0.005 er 0.016] ------- [370:0 712:0 7 712] [0 0] 24 0