s 7.496235777 _379_ AGT  --- 425 tcp 1040 [0 0 0 0] [energy 99.988529 ei 0.005 es 0.000 et 0.002 er 0.005] ------- [379:0 721:0 32 0] [1 0] 0 0
s 7.496235777 _379_ AGT  --- 426 tcp 1040 [0 0 0 0] [energy 99.988529 ei 0.005 es 0.000 et 0.002 er 0.005] ------- [379:0 721:0 32 0] [2 0] 0 0
s 7.796449917 _379_ AGT  --- 431 tcp 1040 [0 0 0 0] [energy 99.987549 ei 0.005 es 0.000 et 0.002 er 0.005] ------- [379:0 721:0 32 0] [3 0] 0 0
s 7.796449917 _379_ AGT  --- 432 tcp 1040 [0 0 0 0] [energy 99.987549 ei 0.005 es 0.000 et 0.002 er 0.005] ------- [379:0 721:0 32 0] [4 0] 0 0
s 7.832162697 _379_ AGT  --- 435 tcp 1040 [0 0 0 0] [energy 99.987059 ei 0.005 es 0.000 et 0.002 er 0.006] ------- [379:0 721:0 32 0] [5 0] 0 0
s 7.832162697 _379_ AGT  --- 436 tcp 1040 [0 0 0 0] [energy 99.987059 ei 0.005 es 0.000 et 0.002 er 0.006] ------- [379:0 721:0 32 0] [6 0] 0 0
s 8.064755457 _379_ AGT  --- 446 tcp 1040 [0 0 0 0] [energy 99.986612 ei 0.006 es 0.000 et 0.002 er 0.006] ------- [379:0 721:0 32 0] [7 0] 0 0
s 8.064755457 _379_ AGT  --- 447 tcp 1040 [0 0 0 0] [energy 99.986612 ei 0.006 es 0.000 et 0.002 er 0.006] ------- [379:0 721:0 32 0] [8 0] 0 0
s 8.234671637 _368_ AGT  --- 457 tcp 1040 [0 0 0 0] [energy 99.983112 ei 0.006 es 0.000 et 0.003 er 0.009] ------- [368:0 710:0 32 0] [1 0] 0 0
s 8.234671637 _368_ AGT  --- 458 tcp 1040 [0 0 0 0] [energy 99.983112 ei 0.006 es 0.000 et 0.003 er 0.009] ------- [368:0 710:0 32 0] [2 0] 0 0
s 8.300017020 _365_ AGT  --- 462 tcp 1040 [0 0 0 0] [energy 99.987617 ei 0.006 es 0.000 et 0.002 er 0.004] ------- [365:0 707:0 32 0] [1 0] 0 0
s 8.300017020 _365_ AGT  --- 463 tcp 1040 [0 0 0 0] [energy 99.987617 ei 0.006 es 0.000 et 0.002 er 0.004] ------- [365:0 707:0 32 0] [2 0] 0 0
s 8.647852562 _379_ AGT  --- 481 tcp 1040 [0 0 0 0] [energy 99.984150 ei 0.006 es 0.000 et 0.003 er 0.007] ------- [379:0 721:0 32 0] [9 0] 0 0
s 8.647852562 _379_ AGT  --- 482 tcp 1040 [0 0 0 0] [energy 99.984150 ei 0.006 es 0.000 et 0.003 er 0.007] ------- [379:0 721:0 32 0] [10 0] 0 0
s 8.647852562 _379_ AGT  --- 483 tcp 1040 [0 0 0 0] [energy 99.984150 ei 0.006 es 0.000 et 0.003 er 0.007] ------- [379:0 721:0 32 0] [11 0] 0 0
s 8.647852562 _379_ AGT  --- 484 tcp 1040 [0 0 0 0] [energy 99.984150 ei 0.006 es 0.000 et 0.003 er 0.007] ------- [379:0 721:0 32 0] [12 0] 0 0
s 8.764812027 _369_ AGT  --- 486 tcp 1040 [0 0 0 0] [energy 99.979872 ei 0.006 es 0.000 et 0.003 er 0.011] ------- [369:0 711:0 32 0] [1 0] 0 0
s 8.764812027 _369_ AGT  --- 487 tcp 1040 [0 0 0 0] [energy 99.979872 ei 0.006 es 0.000 et 0.003 er 0.011] ------- [369:0 711:0 32 0] [2 0] 0 0
s 9.080274607 _369_ AGT  --- 500 tcp 1040 [0 0 0 0] [energy 99.979399 ei 0.006 es 0.000 et 0.003 er 0.011] ------- [369:0 711:0 32 0] [3 0] 0 0
s 9.080274607 _369_ AGT  --- 501 tcp 1040 [0 0 0 0] [energy 99.979399 ei 0.006 es 0.000 et 0.003 er 0.011] ------- [369:0 711:0 32 0] [4 0] 0 0
s 9.333044320 _371_ AGT  --- 512 tcp 1040 [0 0 0 0] [energy 99.979787 ei 0.006 es 0.000 et 0.003 er 0.011] ------- [371:0 713:0 32 0] [1 0] 0 0
s 9.369001135 _372_ AGT  --- 513 tcp 1040 [0 0 0 0] [energy 99.978376 ei 0.006 es 0.000 et 0.003 er 0.012] ------- [372:0 714:0 32 0] [1 0] 0 0
s 9.491691230 _532_ AGT  --- 521 tcp 1040 [0 0 0 0] [energy 99.982001 ei 0.007 es 0.000 et 0.003 er 0.008] ------- [532:0 550:0 32 0] [1 0] 0 0
s 9.491691230 _532_ AGT  --- 522 tcp 1040 [0 0 0 0] [energy 99.982001 ei 0.007 es 0.000 et 0.003 er 0.008] ------- [532:0 550:0 32 0] [2 0] 0 0
s 9.523907815 _456_ AGT  --- 526 tcp 1040 [0 0 0 0] [energy 99.978260 ei 0.006 es 0.000 et 0.004 er 0.012] ------- [456:0 474:0 32 0] [1 0] 0 0
s 9.547229956 _371_ AGT  --- 528 tcp 1040 [0 0 0 0] [energy 99.979393 ei 0.007 es 0.000 et 0.003 er 0.011] ------- [371:0 713:0 32 0] [2 0] 0 0
s 9.547229956 _371_ AGT  --- 529 tcp 1040 [0 0 0 0] [energy 99.979393 ei 0.007 es 0.000 et 0.003 er 0.011] ------- [371:0 713:0 32 0] [3 0] 0 0
s 9.644613020 _494_ AGT  --- 536 tcp 1040 [0 0 0 0] [energy 99.977510 ei 0.007 es 0.000 et 0.004 er 0.012] ------- [494:0 512:0 32 0] [1 0] 0 0
s 9.694737186 _570_ AGT  --- 538 tcp 1040 [0 0 0 0] [energy 99.983021 ei 0.007 es 0.000 et 0.003 er 0.007] ------- [570:0 588:0 32 0] [1 0] 0 0
s 9.694737186 _570_ AGT  --- 539 tcp 1040 [0 0 0 0] [energy 99.983021 ei 0.007 es 0.000 et 0.003 er 0.007] ------- [570:0 588:0 32 0] [2 0] 0 0
s 9.778754289 _371_ AGT  --- 542 tcp 1040 [0 0 0 0] [energy 99.978309 ei 0.007 es 0.000 et 0.003 er 0.012] ------- [371:0 713:0 32 0] [4 0] 0 0
s 10.338754289 _371_ AGT  --- 549 tcp 1040 [0 0 0 0] [energy 99.977588 ei 0.007 es 0.000 et 0.003 er 0.012] ------- [371:0 713:0 32 0] [3 0] 0 0
s 10.717852562 _379_ AGT  --- 554 tcp 1040 [0 0 0 0] [energy 99.980365 ei 0.007 es 0.000 et 0.003 er 0.009] ------- [379:0 721:0 32 0] [7 0] 0 0
s 10.872479669 _371_ AGT  --- 558 tcp 1040 [0 0 0 0] [energy 99.976620 ei 0.007 es 0.000 et 0.003 er 0.012] ------- [371:0 713:0 32 0] [4 0] 0 0
s 10.872479669 _371_ AGT  --- 559 tcp 1040 [0 0 0 0] [energy 99.976620 ei 0.007 es 0.000 et 0.003 er 0.012] ------- [371:0 713:0 32 0] [5 0] 0 0
s 11.078398949 _371_ AGT  --- 564 tcp 1040 [0 0 0 0] [energy 99.976224 ei 0.008 es 0.000 et 0.004 er 0.013] ------- [371:0 713:0 32 0] [6 0] 0 0
s 11.098837469 _371_ AGT  --- 565 tcp 1040 [0 0 0 0] [energy 99.976044 ei 0.008 es 0.000 et 0.004 er 0.013] ------- [371:0 713:0 32 0] [7 0] 0 0
s 11.267803800 _646_ AGT  --- 571 tcp 1040 [0 0 0 0] [energy 99.975762 ei 0.008 es 0.000 et 0.004 er 0.013] ------- [646:0 664:0 32 0] [1 0] 0 0
s 11.359675789 _371_ AGT  --- 572 tcp 1040 [0 0 0 0] [energy 99.975555 ei 0.008 es 0.000 et 0.004 er 0.013] ------- [371:0 713:0 32 0] [8 0] 0 0
s 11.359675789 _371_ AGT  --- 573 tcp 1040 [0 0 0 0] [energy 99.975555 ei 0.008 es 0.000 et 0.004 er 0.013] ------- [371:0 713:0 32 0] [9 0] 0 0
s 11.815056861 _684_ AGT  --- 590 tcp 1040 [0 0 0 0] [energy 99.977264 ei 0.008 es 0.000 et 0.003 er 0.011] ------- [684:0 702:0 32 0] [1 0] 0 0
s 11.849675789 _371_ AGT  --- 592 tcp 1040 [0 0 0 0] [energy 99.974175 ei 0.008 es 0.000 et 0.004 er 0.014] ------- [371:0 713:0 32 0] [7 0] 0 0
s 12.031281621 _684_ AGT  --- 1015 tcp 1040 [0 0 0 0] [energy 99.976945 ei 0.008 es 0.000 et 0.003 er 0.011] ------- [684:0 702:0 32 0] [2 0] 0 0
s 12.031281621 _684_ AGT  --- 1016 tcp 1040 [0 0 0 0] [energy 99.976945 ei 0.008 es 0.000 et 0.003 er 0.011] ------- [684:0 702:0 32 0] [3 0] 0 0
s 12.265282901 _684_ AGT  --- 1153 tcp 1040 [0 0 0 0] [energy 99.975960 ei 0.008 es 0.000 et 0.004 er 0.012] ------- [684:0 702:0 32 0] [4 0] 0 0
s 12.424787464 _475_ AGT  --- 1173 tcp 1040 [0 0 0 0] [energy 99.971708 ei 0.008 es 0.000 et 0.004 er 0.015] ------- [475:0 493:0 32 0] [1 0] 0 0
s 12.564345494 _370_ AGT  --- 1181 tcp 1040 [0 0 0 0] [energy 99.973087 ei 0.009 es 0.000 et 0.004 er 0.015] ------- [370:0 712:0 32 0] [1 0] 0 0
s 12.576463754 _370_ AGT  --- 1184 tcp 1040 [0 0 0 0] [energy 99.972913 ei 0.009 es 0.000 et 0.004 er 0.015] ------- [370:0 712:0 32 0] [2 0] 0 0
s 12.825282901 _684_ AGT  --- 1207 tcp 1040 [0 0 0 0] [energy 99.975099 ei 0.009 es 0.000 et 0.004 er 0.012] ------- [684:0 702:0 32 0] [3 0] 0 0
s 12.829675789 _371_ AGT  --- 1208 tcp 1040 [0 0 0 0] [energy 99.971157 ei 0.009 es 0.000 et 0.004 er 0.016] ------- [371:0 713:0 32 0] [7 0] 0 0
s 12.846393294 _370_ AGT  --- 1211 tcp 1040 [0 0 0 0] [energy 99.971934 ei 0.009 es 0.000 et 0.004 er 0.015] ------- [370:0 712:0 32 0] [3 0] 0 0
s 12.870841245 _475_ AGT  --- 1214 tcp 1040 [0 0 0 0] [energy 99.970392 ei 0.009 es 0.000 et 0.005 er 0.016] ------- [475:0 493:0 32 0] [2 0] 0 0
s 12.870841245 _475_ AGT  --- 1215 tcp 1040 [0 0 0 0] [energy 99.970392 ei 0.009 es 0.000 et 0.005 er 0.016] ------- [475:0 493:0 32 0] [3 0] 0 0
s 12.887704334 _370_ AGT  --- 1218 tcp 1040 [0 0 0 0] [energy 99.971739 ei 0.009 es 0.000 et 0.004 er 0.015] ------- [370:0 712:0 32 0] [4 0] 0 0
s 13.107257354 _370_ AGT  --- 1526 tcp 1040 [0 0 0 0] [energy 99.971418 ei 0.009 es 0.000 et 0.004 er 0.016] ------- [370:0 712:0 32 0] [5 0] 0 0
s 13.134516654 _370_ AGT  --- 1532 tcp 1040 [0 0 0 0] [energy 99.971233 ei 0.009 es 0.000 et 0.004 er 0.016] ------- [370:0 712:0 32 0] [6 0] 0 0
s 13.134516654 _370_ AGT  --- 1533 tcp 1040 [0 0 0 0] [energy 99.971233 ei 0.009 es 0.000 et 0.004 er 0.016] ------- [370:0 712:0 32 0] [7 0] 0 0
s 13.381960194 _370_ AGT  --- 1590 tcp 1040 [0 0 0 0] [energy 99.970746 ei 0.009 es 0.000 et 0.004 er 0.016] ------- [370:0 712:0 32 0] [8 0] 0 0
s 13.945282901 _684_ AGT  --- 1688 tcp 1040 [0 0 0 0] [energy 99.974139 ei 0.009 es 0.000 et 0.004 er 0.013] ------- [684:0 702:0 32 0] [3 0] 0 0
s 13.981960194 _370_ AGT  --- 1698 tcp 1040 [0 0 0 0] [energy 99.970238 ei 0.009 es 0.000 et 0.004 er 0.016] ------- [370:0 712:0 32 0] [6 0] 0 0
s 14.220841245 _475_ AGT  --- 1948 tcp 1040 [0 0 0 0] [energy 99.969454 ei 0.009 es 0.000 et 0.005 er 0.016] ------- [475:0 493:0 32 0] [2 0] 0 0
s 14.689620871 _368_ AGT  --- 2093 tcp 1040 [0 0 0 0] [energy 99.970971 ei 0.010 es 0.000 et 0.004 er 0.015] ------- [368:0 710:0 32 0] [3 0] 0 0
s 14.689620871 _368_ AGT  --- 2094 tcp 1040 [0 0 0 0] [energy 99.970971 ei 0.010 es 0.000 et 0.004 er 0.015] ------- [368:0 710:0 32 0] [4 0] 0 0
s 14.789675789 _371_ AGT  --- 2127 tcp 1040 [0 0 0 0] [energy 99.967825 ei 0.010 es 0.000 et 0.005 er 0.018] ------- [371:0 713:0 32 0] [7 0] 0 0
s 14.857852562 _379_ AGT  --- 2146 tcp 1040 [0 0 0 0] [energy 99.974167 ei 0.010 es 0.000 et 0.004 er 0.012] ------- [379:0 721:0 32 0] [7 0] 0 0
s 15.181960194 _370_ AGT  --- 2212 tcp 1040 [0 0 0 0] [energy 99.966050 ei 0.010 es 0.000 et 0.005 er 0.019] ------- [370:0 712:0 32 0] [6 0] 0 0
s 15.220964103 _399_ AGT  --- 2218 tcp 1040 [0 0 0 0] [energy 99.970608 ei 0.010 es 0.000 et 0.005 er 0.014] ------- [399:0 417:0 32 0] [1 0] 0 0
s 15.369001135 _372_ AGT  --- 2234 tcp 1040 [0 0 0 0] [energy 99.966234 ei 0.010 es 0.000 et 0.005 er 0.019] ------- [372:0 714:0 32 0] [1 0] 0 0
s 15.523907815 _456_ AGT  --- 2252 tcp 1040 [0 0 0 0] [energy 99.965898 ei 0.011 es 0.000 et 0.005 er 0.018] ------- [456:0 474:0 32 0] [1 0] 0 0
s 15.644613020 _494_ AGT  --- 2265 tcp 1040 [0 0 0 0] [energy 99.965549 ei 0.011 es 0.000 et 0.005 er 0.019] ------- [494:0 512:0 32 0] [1 0] 0 0
s 15.981717163 _372_ AGT  --- 2281 tcp 1040 [0 0 0 0] [energy 99.964582 ei 0.011 es 0.000 et 0.005 er 0.020] ------- [372:0 714:0 32 0] [2 0] 0 0
s 15.981717163 _372_ AGT  --- 2282 tcp 1040 [0 0 0 0] [energy 99.964582 ei 0.011 es 0.000 et 0.005 er 0.020] ------- [372:0 714:0 32 0] [3 0] 0 0
s 16.000109539 _456_ AGT  --- 2285 tcp 1040 [0 0 0 0] [energy 99.964708 ei 0.011 es 0.000 et 0.005 er 0.019] ------- [456:0 474:0 32 0] [2 0] 0 0
s 16.000109539 _456_ AGT  --- 2286 tcp 1040 [0 0 0 0] [energy 99.964708 ei 0.011 es 0.000 et 0.005 er 0.019] ------- [456:0 474:0 32 0] [3 0] 0 0
s 16.100378160 _494_ AGT  --- 2290 tcp 1040 [0 0 0 0] [energy 99.964114 ei 0.011 es 0.000 et 0.005 er 0.020] ------- [494:0 512:0 32 0] [2 0] 0 0
s 16.100378160 _494_ AGT  --- 2291 tcp 1040 [0 0 0 0] [energy 99.964114 ei 0.011 es 0.000 et 0.005 er 0.020] ------- [494:0 512:0 32 0] [3 0] 0 0
s 16.185282901 _684_ AGT  --- 2297 tcp 1040 [0 0 0 0] [energy 99.970227 ei 0.011 es 0.000 et 0.004 er 0.014] ------- [684:0 702:0 32 0] [3 0] 0 0
s 16.253605079 _456_ AGT  --- 2301 tcp 1040 [0 0 0 0] [energy 99.963904 ei 0.011 es 0.000 et 0.006 er 0.019] ------- [456:0 474:0 32 0] [4 0] 0 0
s 16.397675711 _377_ AGT  --- 2311 tcp 1040 [0 0 0 0] [energy 99.964857 ei 0.011 es 0.000 et 0.005 er 0.019] ------- [377:0 719:0 32 0] [1 0] 0 0
s 16.569417431 _377_ AGT  --- 2319 tcp 1040 [0 0 0 0] [energy 99.964431 ei 0.011 es 0.000 et 0.005 er 0.019] ------- [377:0 719:0 32 0] [2 0] 0 0
s 16.569417431 _377_ AGT  --- 2320 tcp 1040 [0 0 0 0] [energy 99.964431 ei 0.011 es 0.000 et 0.005 er 0.019] ------- [377:0 719:0 32 0] [3 0] 0 0
s 16.920841245 _475_ AGT  --- 2329 tcp 1040 [0 0 0 0] [energy 99.962460 ei 0.012 es 0.000 et 0.006 er 0.020] ------- [475:0 493:0 32 0] [2 0] 0 0
s 17.000017020 _365_ AGT  --- 2331 tcp 1040 [0 0 0 0] [energy 99.981196 ei 0.010 es 0.000 et 0.003 er 0.006] ------- [365:0 707:0 32 0] [1 0] 0 0
s 17.003605079 _456_ AGT  --- 2332 tcp 1040 [0 0 0 0] [energy 99.962472 ei 0.012 es 0.000 et 0.006 er 0.020] ------- [456:0 474:0 32 0] [3 0] 0 0
s 17.079417431 _377_ AGT  --- 2333 tcp 1040 [0 0 0 0] [energy 99.963565 ei 0.012 es 0.000 et 0.005 er 0.019] ------- [377:0 719:0 32 0] [2 0] 0 0
s 17.164737186 _570_ AGT  --- 2335 tcp 1040 [0 0 0 0] [energy 99.972582 ei 0.012 es 0.000 et 0.004 er 0.011] ------- [570:0 588:0 32 0] [1 0] 0 0
s 17.267803800 _646_ AGT  --- 2338 tcp 1040 [0 0 0 0] [energy 99.963778 ei 0.012 es 0.000 et 0.006 er 0.019] ------- [646:0 664:0 32 0] [1 0] 0 0
s 17.561691230 _532_ AGT  --- 2342 tcp 1040 [0 0 0 0] [energy 99.970096 ei 0.012 es 0.000 et 0.005 er 0.013] ------- [532:0 550:0 32 0] [1 0] 0 0
s 17.581960194 _370_ AGT  --- 2343 tcp 1040 [0 0 0 0] [energy 99.959546 ei 0.012 es 0.000 et 0.006 er 0.022] ------- [370:0 712:0 32 0] [6 0] 0 0
s 18.099417431 _377_ AGT  --- 2345 tcp 1040 [0 0 0 0] [energy 99.961211 ei 0.012 es 0.000 et 0.006 er 0.021] ------- [377:0 719:0 32 0] [2 0] 0 0
s 18.503605079 _456_ AGT  --- 2346 tcp 1040 [0 0 0 0] [energy 99.960343 ei 0.012 es 0.000 et 0.006 er 0.021] ------- [456:0 474:0 32 0] [3 0] 0 0
s 18.668789897 _684_ AGT  --- 2351 tcp 1040 [0 0 0 0] [energy 99.965689 ei 0.013 es 0.000 et 0.005 er 0.016] ------- [684:0 702:0 32 0] [5 0] 0 0
s 18.668789897 _684_ AGT  --- 2352 tcp 1040 [0 0 0 0] [energy 99.965689 ei 0.013 es 0.000 et 0.005 er 0.016] ------- [684:0 702:0 32 0] [6 0] 0 0
s 18.709675789 _371_ AGT  --- 2353 tcp 1040 [0 0 0 0] [energy 99.957093 ei 0.013 es 0.000 et 0.007 er 0.024] ------- [371:0 713:0 32 0] [7 0] 0 0
s 18.820274607 _369_ AGT  --- 2356 tcp 1040 [0 0 0 0] [energy 99.956383 ei 0.013 es 0.000 et 0.007 er 0.024] ------- [369:0 711:0 32 0] [2 0] 0 0
s 19.088726827 _684_ AGT  --- 2357 tcp 1040 [0 0 0 0] [energy 99.964413 ei 0.013 es 0.000 et 0.005 er 0.017] ------- [684:0 702:0 32 0] [7 0] 0 0
s 19.788726827 _684_ AGT  --- 2359 tcp 1040 [0 0 0 0] [energy 99.962943 ei 0.014 es 0.000 et 0.005 er 0.018] ------- [684:0 702:0 32 0] [6 0] 0 0
s 20.139417431 _377_ AGT  --- 2361 tcp 1040 [0 0 0 0] [energy 99.957922 ei 0.014 es 0.000 et 0.006 er 0.022] ------- [377:0 719:0 32 0] [2 0] 0 0
s 20.921289004 _377_ AGT  --- 2363 tcp 1040 [0 0 0 0] [energy 99.956514 ei 0.014 es 0.000 et 0.006 er 0.023] ------- [377:0 719:0 32 0] [4 0] 0 0
s 20.921289004 _377_ AGT  --- 2364 tcp 1040 [0 0 0 0] [energy 99.956514 ei 0.014 es 0.000 et 0.006 er 0.023] ------- [377:0 719:0 32 0] [5 0] 0 0
s 20.962912304 _377_ AGT  --- 2365 tcp 1040 [0 0 0 0] [energy 99.956107 ei 0.014 es 0.000 et 0.006 er 0.023] ------- [377:0 719:0 32 0] [6 0] 0 0
s 21.136470910 _377_ AGT  --- 2366 tcp 1040 [0 0 0 0] [energy 99.955466 ei 0.014 es 0.000 et 0.006 er 0.024] ------- [377:0 719:0 32 0] [7 0] 0 0
s 21.188726827 _684_ AGT  --- 2367 tcp 1040 [0 0 0 0] [energy 99.960740 ei 0.015 es 0.000 et 0.006 er 0.019] ------- [684:0 702:0 32 0] [6 0] 0 0
s 21.503605079 _456_ AGT  --- 2369 tcp 1040 [0 0 0 0] [energy 99.956261 ei 0.014 es 0.000 et 0.007 er 0.023] ------- [456:0 474:0 32 0] [3 0] 0 0
s 22.320841245 _475_ AGT  --- 2371 tcp 1040 [0 0 0 0] [energy 99.955719 ei 0.015 es 0.000 et 0.007 er 0.023] ------- [475:0 493:0 32 0] [2 0] 0 0
s 22.381960194 _370_ AGT  --- 2372 tcp 1040 [0 0 0 0] [energy 99.951692 ei 0.015 es 0.000 et 0.007 er 0.026] ------- [370:0 712:0 32 0] [6 0] 0 0
s 22.881704813 _370_ AGT  --- 2374 tcp 1040 [0 0 0 0] [energy 99.950305 ei 0.016 es 0.000 et 0.007 er 0.027] ------- [370:0 712:0 32 0] [9 0] 0 0
s 22.881704813 _370_ AGT  --- 2375 tcp 1040 [0 0 0 0] [energy 99.950305 ei 0.016 es 0.000 et 0.007 er 0.027] ------- [370:0 712:0 32 0] [10 0] 0 0
s 23.137852562 _379_ AGT  --- 2378 tcp 1040 [0 0 0 0] [energy 99.962672 ei 0.016 es 0.000 et 0.006 er 0.016] ------- [379:0 721:0 32 0] [7 0] 0 0
s 23.338170498 _646_ AGT  --- 2385 tcp 1040 [0 0 0 0] [energy 99.952834 ei 0.016 es 0.000 et 0.007 er 0.024] ------- [646:0 664:0 32 0] [2 0] 0 0
s 23.338170498 _646_ AGT  --- 2386 tcp 1040 [0 0 0 0] [energy 99.952834 ei 0.016 es 0.000 et 0.007 er 0.024] ------- [646:0 664:0 32 0] [3 0] 0 0
s 23.977431837 _665_ AGT  --- 2464 tcp 1040 [0 0 0 0] [energy 99.953340 ei 0.016 es 0.000 et 0.007 er 0.023] ------- [665:0 683:0 32 0] [1 0] 0 0
s 23.988726827 _684_ AGT  --- 2465 tcp 1040 [0 0 0 0] [energy 99.957363 ei 0.017 es 0.000 et 0.006 er 0.020] ------- [684:0 702:0 32 0] [6 0] 0 0
s 24.150481297 _665_ AGT  --- 2708 tcp 1040 [0 0 0 0] [energy 99.952975 ei 0.017 es 0.000 et 0.007 er 0.024] ------- [665:0 683:0 32 0] [2 0] 0 0
s 24.150481297 _665_ AGT  --- 2709 tcp 1040 [0 0 0 0] [energy 99.952975 ei 0.017 es 0.000 et 0.007 er 0.024] ------- [665:0 683:0 32 0] [3 0] 0 0
s 24.334695277 _665_ AGT  --- 2754 tcp 1040 [0 0 0 0] [energy 99.952595 ei 0.017 es 0.000 et 0.007 er 0.024] ------- [665:0 683:0 32 0] [4 0] 0 0
s 24.784695277 _665_ AGT  --- 2850 tcp 1040 [0 0 0 0] [energy 99.951653 ei 0.017 es 0.000 et 0.007 er 0.024] ------- [665:0 683:0 32 0] [3 0] 0 0
s 24.810078243 _665_ AGT  --- 2851 tcp 1040 [0 0 0 0] [energy 99.951148 ei 0.017 es 0.000 et 0.007 er 0.025] ------- [665:0 683:0 32 0] [4 0] 0 0
s 24.810078243 _665_ AGT  --- 2852 tcp 1040 [0 0 0 0] [energy 99.951148 ei 0.017 es 0.000 et 0.007 er 0.025] ------- [665:0 683:0 32 0] [5 0] 0 0
s 24.999215026 _475_ AGT  --- 2862 tcp 1040 [0 0 0 0] [energy 99.951197 ei 0.017 es 0.000 et 0.007 er 0.024] ------- [475:0 493:0 32 0] [3 0] 0 0
s 24.999215026 _475_ AGT  --- 2863 tcp 1040 [0 0 0 0] [energy 99.951197 ei 0.017 es 0.000 et 0.007 er 0.024] ------- [475:0 493:0 32 0] [4 0] 0 0
s 25.001289004 _377_ AGT  --- 2864 tcp 1040 [0 0 0 0] [energy 99.950133 ei 0.017 es 0.000 et 0.007 er 0.026] ------- [377:0 719:0 32 0] [4 0] 0 0
s 25.439620871 _368_ AGT  --- 3162 tcp 1040 [0 0 0 0] [energy 99.949593 ei 0.017 es 0.000 et 0.007 er 0.026] ------- [368:0 710:0 32 0] [2 0] 0 0
s 25.556398954 _665_ AGT  --- 3176 tcp 1040 [0 0 0 0] [energy 99.949385 ei 0.018 es 0.000 et 0.007 er 0.026] ------- [665:0 683:0 32 0] [6 0] 0 0
s 25.556398954 _665_ AGT  --- 3177 tcp 1040 [0 0 0 0] [energy 99.949385 ei 0.018 es 0.000 et 0.007 er 0.026] ------- [665:0 683:0 32 0] [7 0] 0 0
s 25.746244234 _665_ AGT  --- 3257 tcp 1040 [0 0 0 0] [energy 99.948795 ei 0.018 es 0.000 et 0.007 er 0.026] ------- [665:0 683:0 32 0] [8 0] 0 0
s 25.764648754 _665_ AGT  --- 3260 tcp 1040 [0 0 0 0] [energy 99.948616 ei 0.018 es 0.000 et 0.007 er 0.026] ------- [665:0 683:0 32 0] [9 0] 0 0
s 25.764648754 _665_ AGT  --- 3261 tcp 1040 [0 0 0 0] [energy 99.948616 ei 0.018 es 0.000 et 0.007 er 0.026] ------- [665:0 683:0 32 0] [10 0] 0 0
s 25.938897694 _665_ AGT  --- 3280 tcp 1040 [0 0 0 0] [energy 99.948232 ei 0.018 es 0.000 et 0.008 er 0.026] ------- [665:0 683:0 32 0] [11 0] 0 0
s 25.979050791 _368_ AGT  --- 3287 tcp 1040 [0 0 0 0] [energy 99.948743 ei 0.018 es 0.000 et 0.007 er 0.026] ------- [368:0 710:0 32 0] [5 0] 0 0
s 25.979050791 _368_ AGT  --- 3288 tcp 1040 [0 0 0 0] [energy 99.948743 ei 0.018 es 0.000 et 0.007 er 0.026] ------- [368:0 710:0 32 0] [6 0] 0 0
s 26.213956331 _368_ AGT  --- 3501 tcp 1040 [0 0 0 0] [energy 99.948327 ei 0.018 es 0.000 et 0.008 er 0.026] ------- [368:0 710:0 32 0] [7 0] 0 0
s 26.549675789 _371_ AGT  --- 3584 tcp 1040 [0 0 0 0] [energy 99.942314 ei 0.018 es 0.000 et 0.009 er 0.031] ------- [371:0 713:0 32 0] [7 0] 0 0
s 26.698897694 _665_ AGT  --- 3650 tcp 1040 [0 0 0 0] [energy 99.946770 ei 0.018 es 0.000 et 0.008 er 0.027] ------- [665:0 683:0 32 0] [9 0] 0 0
s 26.777804826 _380_ AGT  --- 3676 tcp 1040 [0 0 0 0] [energy 99.956090 ei 0.019 es 0.000 et 0.007 er 0.019] ------- [380:0 398:0 32 0] [1 0] 0 0
s 26.912101887 _378_ AGT  --- 3697 tcp 1040 [0 0 0 0] [energy 99.948698 ei 0.018 es 0.000 et 0.007 er 0.025] ------- [378:0 720:0 32 0] [1 0] 0 0
s 26.997371586 _380_ AGT  --- 3709 tcp 1040 [0 0 0 0] [energy 99.955563 ei 0.019 es 0.000 et 0.007 er 0.019] ------- [380:0 398:0 32 0] [2 0] 0 0
s 26.997371586 _380_ AGT  --- 3710 tcp 1040 [0 0 0 0] [energy 99.955563 ei 0.019 es 0.000 et 0.007 er 0.019] ------- [380:0 398:0 32 0] [3 0] 0 0
s 27.069499796 _399_ AGT  --- 3877 tcp 1040 [0 0 0 0] [energy 99.953707 ei 0.019 es 0.000 et 0.008 er 0.020] ------- [399:0 417:0 32 0] [2 0] 0 0
s 27.085709822 _399_ AGT  --- 3880 tcp 1040 [0 0 0 0] [energy 99.953434 ei 0.019 es 0.000 et 0.008 er 0.020] ------- [399:0 417:0 32 0] [3 0] 0 0
s 27.089731607 _378_ AGT  --- 3882 tcp 1040 [0 0 0 0] [energy 99.948133 ei 0.019 es 0.000 et 0.008 er 0.026] ------- [378:0 720:0 32 0] [2 0] 0 0
s 27.089731607 _378_ AGT  --- 3883 tcp 1040 [0 0 0 0] [energy 99.948133 ei 0.019 es 0.000 et 0.008 er 0.026] ------- [378:0 720:0 32 0] [3 0] 0 0
s 27.183781506 _418_ AGT  --- 3904 tcp 1040 [0 0 0 0] [energy 99.941575 ei 0.019 es 0.000 et 0.010 er 0.030] ------- [418:0 436:0 32 0] [1 0] 0 0
s 27.247949906 _380_ AGT  --- 3927 tcp 1040 [0 0 0 0] [energy 99.954842 ei 0.019 es 0.000 et 0.007 er 0.019] ------- [380:0 398:0 32 0] [4 0] 0 0
s 27.273744946 _378_ AGT  --- 3938 tcp 1040 [0 0 0 0] [energy 99.946770 ei 0.019 es 0.000 et 0.008 er 0.027] ------- [378:0 720:0 32 0] [4 0] 0 0
s 27.288039466 _378_ AGT  --- 3946 tcp 1040 [0 0 0 0] [energy 99.946594 ei 0.019 es 0.000 et 0.008 er 0.027] ------- [378:0 720:0 32 0] [5 0] 0 0
s 27.350681802 _437_ AGT  --- 3960 tcp 1040 [0 0 0 0] [energy 99.945303 ei 0.019 es 0.000 et 0.008 er 0.028] ------- [437:0 455:0 32 0] [1 0] 0 0
s 27.503605079 _456_ AGT  --- 3999 tcp 1040 [0 0 0 0] [energy 99.947357 ei 0.019 es 0.000 et 0.007 er 0.026] ------- [456:0 474:0 32 0] [3 0] 0 0
s 27.516535006 _378_ AGT  --- 4005 tcp 1040 [0 0 0 0] [energy 99.946227 ei 0.019 es 0.000 et 0.008 er 0.027] ------- [378:0 720:0 32 0] [6 0] 0 0
s 27.516535006 _378_ AGT  --- 4006 tcp 1040 [0 0 0 0] [energy 99.946227 ei 0.019 es 0.000 et 0.008 er 0.027] ------- [378:0 720:0 32 0] [7 0] 0 0
s 27.542305989 _437_ AGT  --- 4013 tcp 1040 [0 0 0 0] [energy 99.944795 ei 0.019 es 0.000 et 0.008 er 0.028] ------- [437:0 455:0 32 0] [2 0] 0 0
s 27.542305989 _437_ AGT  --- 4014 tcp 1040 [0 0 0 0] [energy 99.944795 ei 0.019 es 0.000 et 0.008 er 0.028] ------- [437:0 455:0 32 0] [3 0] 0 0
s 27.548622566 _378_ AGT  --- 4016 tcp 1040 [0 0 0 0] [energy 99.945880 ei 0.019 es 0.000 et 0.008 er 0.027] ------- [378:0 720:0 32 0] [8 0] 0 0
s 27.647970642 _373_ AGT  --- 4040 tcp 1040 [0 0 0 0] [energy 99.942187 ei 0.019 es 0.000 et 0.009 er 0.029] ------- [373:0 715:0 32 0] [1 0] 0 0
s 27.827949906 _380_ AGT  --- 4116 tcp 1040 [0 0 0 0] [energy 99.953726 ei 0.019 es 0.000 et 0.007 er 0.020] ------- [380:0 398:0 32 0] [3 0] 0 0
s 27.835231106 _373_ AGT  --- 4117 tcp 1040 [0 0 0 0] [energy 99.941477 ei 0.019 es 0.000 et 0.010 er 0.030] ------- [373:0 715:0 32 0] [2 0] 0 0
s 27.835231106 _373_ AGT  --- 4118 tcp 1040 [0 0 0 0] [energy 99.941477 ei 0.019 es 0.000 et 0.010 er 0.030] ------- [373:0 715:0 32 0] [3 0] 0 0
s 27.981717163 _372_ AGT  --- 4142 tcp 1040 [0 0 0 0] [energy 99.939037 ei 0.019 es 0.000 et 0.010 er 0.032] ------- [372:0 714:0 32 0] [2 0] 0 0
s 27.998622566 _378_ AGT  --- 4145 tcp 1040 [0 0 0 0] [energy 99.945159 ei 0.019 es 0.000 et 0.008 er 0.028] ------- [378:0 720:0 32 0] [6 0] 0 0
s 28.100378160 _494_ AGT  --- 4245 tcp 1040 [0 0 0 0] [energy 99.950378 ei 0.019 es 0.000 et 0.005 er 0.025] ------- [494:0 512:0 32 0] [2 0] 0 0
s 28.112305989 _437_ AGT  --- 4249 tcp 1040 [0 0 0 0] [energy 99.943768 ei 0.019 es 0.000 et 0.008 er 0.029] ------- [437:0 455:0 32 0] [2 0] 0 0
s 28.218897694 _665_ AGT  --- 4264 tcp 1040 [0 0 0 0] [energy 99.944032 ei 0.019 es 0.000 et 0.008 er 0.028] ------- [665:0 683:0 32 0] [9 0] 0 0
s 28.405231106 _373_ AGT  --- 4294 tcp 1040 [0 0 0 0] [energy 99.939683 ei 0.019 es 0.000 et 0.010 er 0.031] ------- [373:0 715:0 32 0] [2 0] 0 0
s 28.572427803 _399_ AGT  --- 4308 tcp 1040 [0 0 0 0] [energy 99.949465 ei 0.020 es 0.000 et 0.008 er 0.022] ------- [399:0 417:0 32 0] [4 0] 0 0
s 28.584443991 _378_ AGT  --- 4310 tcp 1040 [0 0 0 0] [energy 99.943033 ei 0.020 es 0.000 et 0.009 er 0.029] ------- [378:0 720:0 32 0] [9 0] 0 0
s 28.584443991 _378_ AGT  --- 4311 tcp 1040 [0 0 0 0] [energy 99.943033 ei 0.020 es 0.000 et 0.009 er 0.029] ------- [378:0 720:0 32 0] [10 0] 0 0
s 28.585470583 _399_ AGT  --- 4312 tcp 1040 [0 0 0 0] [energy 99.949290 ei 0.020 es 0.000 et 0.008 er 0.023] ------- [399:0 417:0 32 0] [5 0] 0 0
s 28.771470563 _399_ AGT  --- 4341 tcp 1040 [0 0 0 0] [energy 99.948923 ei 0.020 es 0.000 et 0.009 er 0.023] ------- [399:0 417:0 32 0] [6 0] 0 0
s 28.771470563 _399_ AGT  --- 4342 tcp 1040 [0 0 0 0] [energy 99.948923 ei 0.020 es 0.000 et 0.009 er 0.023] ------- [399:0 417:0 32 0] [7 0] 0 0
s 28.798889531 _378_ AGT  --- 4352 tcp 1040 [0 0 0 0] [energy 99.942632 ei 0.020 es 0.000 et 0.009 er 0.029] ------- [378:0 720:0 32 0] [11 0] 0 0
s 28.906890701 _378_ AGT  --- 4357 tcp 1040 [0 0 0 0] [energy 99.942117 ei 0.020 es 0.000 et 0.009 er 0.029] ------- [378:0 720:0 32 0] [12 0] 0 0
s 28.987949906 _380_ AGT  --- 4365 tcp 1040 [0 0 0 0] [energy 99.951518 ei 0.020 es 0.000 et 0.007 er 0.021] ------- [380:0 398:0 32 0] [3 0] 0 0
s 29.252305989 _437_ AGT  --- 4398 tcp 1040 [0 0 0 0] [energy 99.941250 ei 0.020 es 0.000 et 0.009 er 0.030] ------- [437:0 455:0 32 0] [2 0] 0 0
s 29.346890701 _378_ AGT  --- 4407 tcp 1040 [0 0 0 0] [energy 99.941417 ei 0.020 es 0.000 et 0.009 er 0.030] ------- [378:0 720:0 32 0] [11 0] 0 0
s 29.545231106 _373_ AGT  --- 4420 tcp 1040 [0 0 0 0] [energy 99.937501 ei 0.020 es 0.000 et 0.010 er 0.032] ------- [373:0 715:0 32 0] [2 0] 0 0
s 29.588726827 _684_ AGT  --- 4424 tcp 1040 [0 0 0 0] [energy 99.948475 ei 0.020 es 0.000 et 0.007 er 0.024] ------- [684:0 702:0 32 0] [6 0] 0 0
s 29.791721843 _378_ AGT  --- 4437 tcp 1040 [0 0 0 0] [energy 99.939998 ei 0.020 es 0.000 et 0.009 er 0.030] ------- [378:0 720:0 32 0] [12 0] 0 0
s 29.791721843 _378_ AGT  --- 4438 tcp 1040 [0 0 0 0] [energy 99.939998 ei 0.020 es 0.000 et 0.009 er 0.030] ------- [378:0 720:0 32 0] [13 0] 0 0
s 29.990804603 _378_ AGT  --- 4451 tcp 1040 [0 0 0 0] [energy 99.939596 ei 0.021 es 0.000 et 0.009 er 0.031] ------- [378:0 720:0 32 0] [14 0] 0 0
s 30.021619643 _378_ AGT  --- 4453 tcp 1040 [0 0 0 0] [energy 99.939409 ei 0.021 es 0.000 et 0.009 er 0.031] ------- [378:0 720:0 32 0] [15 0] 0 0
s 30.165710323 _378_ AGT  --- 4462 tcp 1040 [0 0 0 0] [energy 99.939141 ei 0.021 es 0.000 et 0.009 er 0.031] ------- [378:0 720:0 32 0] [16 0] 0 0
s 30.165710323 _378_ AGT  --- 4463 tcp 1040 [0 0 0 0] [energy 99.939141 ei 0.021 es 0.000 et 0.009 er 0.031] ------- [378:0 720:0 32 0] [17 0] 0 0
s 30.206757623 _378_ AGT  --- 4466 tcp 1040 [0 0 0 0] [energy 99.938766 ei 0.021 es 0.000 et 0.009 er 0.031] ------- [378:0 720:0 32 0] [18 0] 0 0
s 30.586757623 _378_ AGT  --- 4488 tcp 1040 [0 0 0 0] [energy 99.938061 ei 0.021 es 0.000 et 0.009 er 0.032] ------- [378:0 720:0 32 0] [16 0] 0 0
s 30.589347319 _665_ AGT  --- 4489 tcp 1040 [0 0 0 0] [energy 99.940480 ei 0.021 es 0.000 et 0.008 er 0.030] ------- [665:0 683:0 32 0] [10 0] 0 0
s 30.589347319 _665_ AGT  --- 4490 tcp 1040 [0 0 0 0] [energy 99.940480 ei 0.021 es 0.000 et 0.008 er 0.030] ------- [665:0 683:0 32 0] [11 0] 0 0
s 30.783941240 _378_ AGT  --- 4500 tcp 1040 [0 0 0 0] [energy 99.936956 ei 0.021 es 0.000 et 0.010 er 0.032] ------- [378:0 720:0 32 0] [17 0] 0 0
s 30.783941240 _378_ AGT  --- 4501 tcp 1040 [0 0 0 0] [energy 99.936956 ei 0.021 es 0.000 et 0.010 er 0.032] ------- [378:0 720:0 32 0] [18 0] 0 0
s 30.972089330 _380_ AGT  --- 4514 tcp 1040 [0 0 0 0] [energy 99.948577 ei 0.021 es 0.000 et 0.008 er 0.022] ------- [380:0 398:0 32 0] [4 0] 0 0
s 30.972089330 _380_ AGT  --- 4515 tcp 1040 [0 0 0 0] [energy 99.948577 ei 0.021 es 0.000 et 0.008 er 0.022] ------- [380:0 398:0 32 0] [5 0] 0 0
s 30.976249590 _380_ AGT  --- 4516 tcp 1040 [0 0 0 0] [energy 99.948460 ei 0.021 es 0.000 et 0.008 er 0.022] ------- [380:0 398:0 32 0] [6 0] 0 0
s 31.215373891 _378_ AGT  --- 4532 tcp 1040 [0 0 0 0] [energy 99.933920 ei 0.021 es 0.000 et 0.010 er 0.034] ------- [378:0 720:0 32 0] [19 0] 0 0
s 31.215373891 _378_ AGT  --- 4533 tcp 1040 [0 0 0 0] [energy 99.933920 ei 0.021 es 0.000 et 0.010 er 0.034] ------- [378:0 720:0 32 0] [20 0] 0 0
s 31.218203130 _380_ AGT  --- 4534 tcp 1040 [0 0 0 0] [energy 99.947853 ei 0.022 es 0.000 et 0.008 er 0.023] ------- [380:0 398:0 32 0] [7 0] 0 0
s 31.230029390 _380_ AGT  --- 4536 tcp 1040 [0 0 0 0] [energy 99.947606 ei 0.022 es 0.000 et 0.008 er 0.023] ------- [380:0 398:0 32 0] [8 0] 0 0
s 31.230029390 _380_ AGT  --- 4537 tcp 1040 [0 0 0 0] [energy 99.947606 ei 0.022 es 0.000 et 0.008 er 0.023] ------- [380:0 398:0 32 0] [9 0] 0 0
s 31.532305989 _437_ AGT  --- 4554 tcp 1040 [0 0 0 0] [energy 99.937802 ei 0.021 es 0.000 et 0.009 er 0.032] ------- [437:0 455:0 32 0] [2 0] 0 0
s 31.750029390 _380_ AGT  --- 4561 tcp 1040 [0 0 0 0] [energy 99.947291 ei 0.022 es 0.000 et 0.008 er 0.023] ------- [380:0 398:0 32 0] [7 0] 0 0
s 31.825231106 _373_ AGT  --- 4563 tcp 1040 [0 0 0 0] [energy 99.932074 ei 0.022 es 0.000 et 0.011 er 0.035] ------- [373:0 715:0 32 0] [2 0] 0 0
s 31.975373891 _378_ AGT  --- 4565 tcp 1040 [0 0 0 0] [energy 99.931463 ei 0.022 es 0.000 et 0.011 er 0.036] ------- [378:0 720:0 32 0] [19 0] 0 0
s 32.104737186 _570_ AGT  --- 4570 tcp 1040 [0 0 0 0] [energy 99.953293 ei 0.022 es 0.000 et 0.007 er 0.018] ------- [570:0 588:0 32 0] [1 0] 0 0
s 32.481704813 _370_ AGT  --- 4589 tcp 1040 [0 0 0 0] [energy 99.926386 ei 0.022 es 0.000 et 0.012 er 0.040] ------- [370:0 712:0 32 0] [9 0] 0 0
s 32.790029390 _380_ AGT  --- 4599 tcp 1040 [0 0 0 0] [energy 99.945174 ei 0.023 es 0.000 et 0.009 er 0.024] ------- [380:0 398:0 32 0] [7 0] 0 0
s 33.161289004 _377_ AGT  --- 4617 tcp 1040 [0 0 0 0] [energy 99.928564 ei 0.023 es 0.000 et 0.011 er 0.038] ------- [377:0 719:0 32 0] [4 0] 0 0
s 33.493415524 _570_ AGT  --- 4632 tcp 1040 [0 0 0 0] [energy 99.951133 ei 0.023 es 0.000 et 0.007 er 0.018] ------- [570:0 588:0 32 0] [2 0] 0 0