r 0.218847095 _1_ MAC  --- 5 message 32 [0 ffffffff c 800] [energy 999.781153 ei 0.215 es 0.000 et 0.000 er 0.004] ------- [12:255 -1:255 32 0] 
r 0.352450018 _1_ MAC  --- 7 message 32 [0 ffffffff 2 800] [energy 999.647550 ei 0.347 es 0.000 et 0.000 er 0.006] ------- [2:255 -1:255 32 0] 
r 0.609129531 _1_ MAC  --- 10 message 32 [0 ffffffff 6 800] [energy 999.390870 ei 0.601 es 0.000 et 0.000 er 0.008] ------- [6:255 -1:255 32 0] 
r 0.750666023 _1_ MAC  --- 12 message 32 [0 ffffffff a 800] [energy 999.249334 ei 0.741 es 0.000 et 0.000 er 0.009] ------- [10:255 -1:255 32 0] 
r 1.045880935 _1_ MAC  --- 15 message 32 [0 ffffffff 3 800] [energy 998.954119 ei 1.034 es 0.000 et 0.000 er 0.012] ------- [3:255 -1:255 32 0] 
r 1.237169725 _1_ MAC  --- 16 message 32 [0 ffffffff 5 800] [energy 998.762830 ei 1.225 es 0.000 et 0.000 er 0.012] ------- [5:255 -1:255 32 0] 
r 1.502200594 _1_ MAC  --- 18 message 32 [0 ffffffff b 800] [energy 998.497799 ei 1.489 es 0.000 et 0.000 er 0.014] ------- [11:255 -1:255 32 0] 
r 1.626304566 _1_ MAC  --- 21 message 32 [0 ffffffff 0 800] [energy 998.373695 ei 1.610 es 0.000 et 0.000 er 0.016] ------- [0:255 -1:255 32 0] 
s 1.864346734 _1_ MAC  --- 22 message 90 [0 ffffffff 1 800] [energy 998.373695 ei 1.610 es 0.000 et 0.000 er 0.016] ------- [1:255 -1:255 32 0] 
r 1.927285218 _1_ MAC  --- 23 message 32 [0 ffffffff 7 800] [energy 998.072715 ei 1.910 es 0.000 et 0.001 er 0.017] ------- [7:255 -1:255 32 0] 
r 2.005109493 _1_ MAC  --- 24 message 32 [0 ffffffff 8 800] [energy 997.994891 ei 1.987 es 0.000 et 0.001 er 0.017] ------- [8:255 -1:255 32 0] 
s 5.100000000 _1_ AGT  --- 27 tcp 40 [0 0 0 0] [energy 997.994891 ei 1.987 es 0.000 et 0.001 er 0.017] ------- [1:0 21:0 32 0] [0 0] 0 0
s 8.100000000 _1_ AGT  --- 43 tcp 40 [0 0 0 0] [energy 997.994891 ei 1.987 es 0.000 et 0.001 er 0.017] ------- [1:0 21:0 32 0] [0 0] 0 0
r 11.649161069 _1_ MAC  --- 60 message 32 [0 ffffffff c 800] [energy 988.350839 ei 11.630 es 0.000 et 0.001 er 0.018] ------- [12:255 -1:255 32 0] 
r 12.027419793 _1_ MAC  --- 68 message 32 [0 ffffffff b 800] [energy 987.972580 ei 12.007 es 0.000 et 0.001 er 0.019] ------- [11:255 -1:255 32 0] 
r 12.028388205 _1_ MAC  --- 0 ARP 28 [0 ffffffff 2 806] [energy 987.971612 ei 12.008 es 0.000 et 0.001 er 0.020] ------- [REQUEST 2/2 0/11]
r 12.031297186 _1_ MAC  --- 0 ARP 28 [0 ffffffff 2 806] [energy 987.968703 ei 12.008 es 0.000 et 0.001 er 0.022] ------- [REQUEST 2/2 0/11]
r 12.044098699 _1_ MAC  --- 0 ARP 28 [0 ffffffff b 806] [energy 987.955901 ei 12.010 es 0.000 et 0.001 er 0.033] ------- [REQUEST 11/11 0/22]
r 12.091892814 _1_ MAC  --- 76 message 32 [0 ffffffff 8 800] [energy 987.908107 ei 12.042 es 0.000 et 0.001 er 0.049] ------- [8:255 -1:255 32 0] 
r 12.094051117 _1_ MAC  --- 77 message 32 [0 ffffffff 7 800] [energy 987.905949 ei 12.044 es 0.000 et 0.001 er 0.050] ------- [7:255 -1:255 32 0] 
r 12.122000446 _1_ MAC  --- 80 message 32 [0 ffffffff 3 800] [energy 987.878000 ei 12.071 es 0.000 et 0.001 er 0.050] ------- [3:255 -1:255 32 0] 
r 12.123346446 _1_ MAC  --- 81 message 44 [0 ffffffff 2 800] [energy 987.876654 ei 12.071 es 0.000 et 0.001 er 0.051] ------- [2:255 -1:255 32 0] 
r 12.126781428 _1_ MAC  --- 0 ARP 28 [0 ffffffff 2 806] [energy 987.873219 ei 12.072 es 0.000 et 0.001 er 0.054] ------- [REQUEST 2/2 0/9]
r 12.221136289 _1_ MAC  --- 87 message 32 [0 ffffffff 5 800] [energy 987.778864 ei 12.157 es 0.000 et 0.001 er 0.063] ------- [5:255 -1:255 32 0] 
s 12.354156062 _1_ MAC  --- 88 message 90 [0 ffffffff 1 800] [energy 987.778864 ei 12.157 es 0.000 et 0.001 er 0.063] ------- [1:255 -1:255 32 0] 
r 12.361899762 _1_ MAC  --- 89 message 32 [0 ffffffff 6 800] [energy 987.638100 ei 12.296 es 0.000 et 0.001 er 0.064] ------- [6:255 -1:255 32 0] 
r 12.363270234 _1_ MAC  --- 90 message 32 [0 ffffffff 0 800] [energy 987.636730 ei 12.297 es 0.000 et 0.001 er 0.065] ------- [0:255 -1:255 32 0] 
r 12.612108817 _1_ MAC  --- 93 message 32 [0 ffffffff a 800] [energy 987.387891 ei 12.543 es 0.000 et 0.001 er 0.068] ------- [10:255 -1:255 32 0] 
r 12.648871654 _1_ MAC  --- 94 message 92 [0 ffffffff c 800] [energy 987.351128 ei 12.579 es 0.000 et 0.001 er 0.069] ------- [12:255 -1:255 32 0] 
r 12.801982606 _1_ MAC  --- 106 message 80 [0 ffffffff 5 800] [energy 987.198017 ei 12.586 es 0.000 et 0.001 er 0.214] ------- [5:255 -1:255 32 0] 
r 12.940801304 _1_ MAC  --- 115 message 68 [0 ffffffff 6 800] [energy 987.059199 ei 12.592 es 0.000 et 0.001 er 0.348] ------- [6:255 -1:255 32 0] 
r 13.043784899 _1_ MAC  --- 138 message 116 [0 ffffffff b 800] [energy 986.956215 ei 12.598 es 0.000 et 0.001 er 0.444] ------- [11:255 -1:255 32 0] 
s 13.074013197 _1_ MAC  --- 0 RTS 44 [6ce b 1 0] [energy 986.926057 ei 12.600 es 0.000 et 0.001 er 0.473] 
r 13.074680531 _1_ MAC  --- 0 CTS 38 [594 1 0 0] [energy 986.925319 ei 12.600 es 0.000 et 0.002 er 0.473] 
s 13.074690531 _1_ MAC  --- 27 tcp 138 [13a b 1 800] [energy 986.925319 ei 12.600 es 0.000 et 0.002 er 0.473] ------- [1:0 21:0 32 11] [0 0] 0 0
r 13.076109864 _1_ MAC  --- 0 ACK 38 [0 1 0 0] [energy 986.923890 ei 12.600 es 0.000 et 0.003 er 0.474] 
s 13.076179864 _1_ MAC  --- 0 RTS 44 [6ce b 1 0] [energy 986.923890 ei 12.600 es 0.000 et 0.003 er 0.474] 
r 13.076847197 _1_ MAC  --- 0 CTS 38 [594 1 0 0] [energy 986.923153 ei 12.600 es 0.000 et 0.003 er 0.474] 
s 13.076857197 _1_ MAC  --- 43 tcp 138 [13a b 1 800] [energy 986.923153 ei 12.600 es 0.000 et 0.003 er 0.474] ------- [1:0 21:0 32 11] [0 0] 0 0
r 13.078276531 _1_ MAC  --- 0 ACK 38 [0 1 0 0] [energy 986.921723 ei 12.600 es 0.000 et 0.004 er 0.474] 
r 13.104258748 _1_ MAC  --- 0 ARP 28 [0 ffffffff b 806] [energy 986.895741 ei 12.601 es 0.000 et 0.004 er 0.499] ------- [REQUEST 11/11 0/21]
D 13.123219203 _1_ MAC  COL 143 message 150 [0 ffffffff 8 800] [energy 986.876781 ei 12.602 es 0.000 et 0.004 er 0.517] ------- [8:255 -1:255 32 0] 
r 13.124857542 _1_ MAC  --- 144 message 104 [0 ffffffff 7 800] [energy 986.875142 ei 12.603 es 0.000 et 0.004 er 0.518] ------- [7:255 -1:255 32 0] 
r 13.134401482 _1_ MAC  --- 0 ARP 28 [0 ffffffff 3 806] [energy 986.865599 ei 12.604 es 0.000 et 0.004 er 0.526] ------- [REQUEST 3/3 0/13]
r 13.148971542 _1_ MAC  --- 150 message 68 [0 ffffffff 3 800] [energy 986.851028 ei 12.604 es 0.000 et 0.004 er 0.540] ------- [3:255 -1:255 32 0] 
r 13.161747033 _1_ MAC  --- 0 ARP 28 [0 ffffffff 3 806] [energy 986.838253 ei 12.605 es 0.000 et 0.004 er 0.553] ------- [REQUEST 3/3 0/13]
r 13.189160584 _1_ MAC  --- 151 message 68 [0 ffffffff 2 800] [energy 986.810839 ei 12.606 es 0.000 et 0.004 er 0.579] ------- [2:255 -1:255 32 0] 
D 13.378593709 _1_ MAC  COL 177 message 102 [0 ffffffff 0 800] [energy 986.621406 ei 12.613 es 0.000 et 0.004 er 0.761] ------- [0:255 -1:255 32 0] 
s 13.405428039 _1_ MAC  --- 176 message 126 [0 ffffffff 1 800] [energy 986.594722 ei 12.614 es 0.000 et 0.004 er 0.787] ------- [1:255 -1:255 32 0] 
r 13.659540049 _1_ MAC  --- 205 message 104 [0 ffffffff c 800] [energy 986.340460 ei 12.625 es 0.000 et 0.005 er 1.029] ------- [12:255 -1:255 32 0] 
r 13.699750663 _1_ MAC  --- 202 message 44 [0 ffffffff a 800] [energy 986.300249 ei 12.627 es 0.000 et 0.005 er 1.067] ------- [10:255 -1:255 32 0] 
r 13.700578917 _1_ MAC  --- 0 ARP 28 [0 ffffffff 0 806] [energy 986.299161 ei 12.627 es 0.000 et 0.005 er 1.068] ------- [REQUEST 0/0 0/10]
r 13.701416917 _1_ MAC  --- 0 ARP 28 [0 ffffffff 0 806] [energy 986.298583 ei 12.627 es 0.000 et 0.005 er 1.069] ------- [REQUEST 0/0 0/10]
r 13.733227993 _1_ MAC  --- 212 message 128 [0 ffffffff 7 800] [energy 986.266772 ei 12.630 es 0.000 et 0.005 er 1.098] ------- [7:255 -1:255 32 0] 
r 13.752924682 _1_ MAC  --- 215 message 92 [0 ffffffff 2 800] [energy 986.247075 ei 12.631 es 0.000 et 0.005 er 1.116] ------- [2:255 -1:255 32 0] 
D 13.863435497 _1_ MAC  COL 220 message 90 [0 ffffffff 5 800] [energy 986.136565 ei 12.635 es 0.000 et 0.005 er 1.223] ------- [5:255 -1:255 32 0] 
r 13.864778105 _1_ MAC  --- 0 ARP 28 [0 ffffffff a 806] [energy 986.135222 ei 12.636 es 0.000 et 0.005 er 1.224] ------- [REQUEST 10/10 0/20]
r 13.899501932 _1_ MAC  --- 231 message 68 [0 ffffffff 6 800] [energy 986.100498 ei 12.638 es 0.000 et 0.005 er 1.256] ------- [6:255 -1:255 32 0] 
s 14.100000000 _1_ AGT  --- 258 tcp 40 [0 0 0 0] [energy 985.893115 ei 12.649 es 0.000 et 0.005 er 1.452] ------- [1:0 21:0 32 0] [0 0] 0 0
r 14.118496605 _1_ MAC  --- 255 message 92 [0 ffffffff 8 800] [energy 985.881503 ei 12.649 es 0.000 et 0.005 er 1.464] ------- [8:255 -1:255 32 0] 
s 14.167339864 _1_ MAC  --- 0 RTS 44 [62e b 1 0] [energy 985.832730 ei 12.651 es 0.000 et 0.005 er 1.511] 
r 14.168007198 _1_ MAC  --- 0 CTS 38 [4f4 1 0 0] [energy 985.831993 ei 12.651 es 0.000 et 0.006 er 1.511] 
s 14.168017198 _1_ MAC  --- 258 tcp 118 [13a b 1 800] [energy 985.831993 ei 12.651 es 0.000 et 0.006 er 1.511] ------- [1:0 21:0 32 11] [0 0] 0 0
r 14.169276531 _1_ MAC  --- 0 ACK 38 [0 1 0 0] [energy 985.830723 ei 12.651 es 0.000 et 0.007 er 1.512] 
r 14.241611264 _1_ MAC  --- 261 message 80 [0 ffffffff 3 800] [energy 985.758389 ei 12.653 es 0.000 et 0.007 er 1.582] ------- [3:255 -1:255 32 0] 
r 14.269341878 _1_ MAC  --- 248 message 68 [0 ffffffff b 800] [energy 985.730658 ei 12.654 es 0.000 et 0.007 er 1.608] ------- [11:255 -1:255 32 0] 
s 14.417695285 _1_ MAC  --- 284 message 138 [0 ffffffff 1 800] [energy 985.582395 ei 12.660 es 0.000 et 0.007 er 1.751] ------- [1:255 -1:255 32 0] 
r 14.422184034 _1_ MAC  --- 285 message 56 [0 ffffffff 0 800] [energy 985.577816 ei 12.662 es 0.000 et 0.008 er 1.753] ------- [0:255 -1:255 32 0] 
r 14.499396139 _1_ MAC  --- 0 ARP 28 [0 ffffffff b 806] [energy 985.500604 ei 12.665 es 0.000 et 0.008 er 1.827] ------- [REQUEST 11/11 0/1]
s 14.511719121 _1_ MAC  --- 0 RTS 44 [52e b 1 0] [energy 985.488351 ei 12.665 es 0.000 et 0.008 er 1.839] 
r 14.512386454 _1_ MAC  --- 0 CTS 38 [3f4 1 0 0] [energy 985.487614 ei 12.665 es 0.000 et 0.008 er 1.839] 
s 14.512396454 _1_ MAC  --- 0 ARP 86 [13a b 1 806] [energy 985.487614 ei 12.665 es 0.000 et 0.008 er 1.839] ------- [REPLY 1/1 11/11]
r 14.513399787 _1_ MAC  --- 0 ACK 38 [0 1 0 0] [energy 985.486600 ei 12.665 es 0.000 et 0.009 er 1.839] 
r 14.514337787 _1_ MAC  --- 0 ARP 28 [0 ffffffff b 806] [energy 985.485662 ei 12.665 es 0.000 et 0.009 er 1.840] ------- [REQUEST 11/11 0/0]
r 14.517162866 _1_ MAC  --- 0 ARP 28 [0 ffffffff b 806] [energy 985.482837 ei 12.666 es 0.000 et 0.009 er 1.843] ------- [REQUEST 11/11 0/0]
r 14.554522065 _1_ MAC  --- 0 ARP 28 [0 ffffffff b 806] [energy 985.445478 ei 12.667 es 0.000 et 0.009 er 1.879] ------- [REQUEST 11/11 0/1]
s 14.556443046 _1_ MAC  --- 0 RTS 44 [52e b 1 0] [energy 985.443687 ei 12.667 es 0.000 et 0.009 er 1.880] 
r 14.557110380 _1_ MAC  --- 0 CTS 38 [3f4 1 0 0] [energy 985.442890 ei 12.667 es 0.000 et 0.009 er 1.881] 
s 14.557120380 _1_ MAC  --- 0 ARP 86 [13a b 1 806] [energy 985.442890 ei 12.667 es 0.000 et 0.009 er 1.881] ------- [REPLY 1/1 11/11]
r 14.558123713 _1_ MAC  --- 0 ACK 38 [0 1 0 0] [energy 985.441876 ei 12.667 es 0.000 et 0.010 er 1.881] 
r 14.593188874 _1_ MAC  --- 0 RTS 44 [62e 1 b 0] [energy 985.406811 ei 12.668 es 0.000 et 0.010 er 1.915] 
s 14.593198874 _1_ MAC  --- 0 CTS 38 [4f4 b 0 0] [energy 985.406811 ei 12.668 es 0.000 et 0.010 er 1.915] 
r 14.594458208 _1_ MAC  --- 298 ack 60 [13a 1 b 800] [energy 985.405542 ei 12.668 es 0.000 et 0.010 er 1.916] ------- [21:0 1:0 31 1] [0 0] 2 0
s 14.594468208 _1_ MAC  --- 0 ACK 38 [0 b 0 0] [energy 985.405542 ei 12.668 es 0.000 et 0.010 er 1.916] 
r 14.594483208 _1_ AGT  --- 298 ack 60 [13a 1 b 800] [energy 985.405228 ei 12.668 es 0.000 et 0.010 er 1.916] ------- [21:0 1:0 31 1] [0 0] 2 0
s 14.594483208 _1_ AGT  --- 313 tcp 1040 [0 0 0 0] [energy 985.405228 ei 12.668 es 0.000 et 0.010 er 1.916] ------- [1:0 21:0 32 0] [1 0] 0 0
s 14.651008193 _1_ MAC  --- 0 RTS 44 [256e b 1 0] [energy 985.349222 ei 12.671 es 0.000 et 0.010 er 1.970] 
r 14.651675527 _1_ MAC  --- 0 CTS 38 [2434 1 0 0] [energy 985.348324 ei 12.671 es 0.000 et 0.011 er 1.970] 
s 14.651685527 _1_ MAC  --- 313 tcp 1118 [13a b 1 800] [energy 985.348324 ei 12.671 es 0.000 et 0.011 er 1.970] ------- [1:0 21:0 32 11] [1 0] 0 0
r 14.660944860 _1_ MAC  --- 0 ACK 38 [0 1 0 0] [energy 985.339055 ei 12.671 es 0.000 et 0.020 er 1.970] 
r 14.672337684 _1_ MAC  --- 322 message 104 [0 ffffffff c 800] [energy 985.327662 ei 12.671 es 0.000 et 0.020 er 1.982] ------- [12:255 -1:255 32 0] 
r 14.725544178 _1_ MAC  --- 328 message 44 [0 ffffffff 7 800] [energy 985.274456 ei 12.672 es 0.000 et 0.020 er 2.034] ------- [7:255 -1:255 32 0] 
r 14.738921533 _1_ MAC  --- 329 message 80 [0 ffffffff a 800] [energy 985.261078 ei 12.672 es 0.000 et 0.020 er 2.047] ------- [10:255 -1:255 32 0] 
r 14.859456994 _1_ MAC  --- 330 message 44 [0 ffffffff 2 800] [energy 985.140543 ei 12.676 es 0.000 et 0.020 er 2.164] ------- [2:255 -1:255 32 0] 
r 14.860503878 _1_ MAC  --- 336 message 44 [0 ffffffff 5 800] [energy 985.139496 ei 12.676 es 0.000 et 0.020 er 2.165] ------- [5:255 -1:255 32 0] 
r 14.903986903 _1_ MAC  --- 347 message 80 [0 ffffffff 6 800] [energy 985.096013 ei 12.683 es 0.000 et 0.020 er 2.201] ------- [6:255 -1:255 32 0] 
r 14.994342759 _1_ MAC  --- 0 RTS 44 [62e 1 b 0] [energy 985.005657 ei 12.687 es 0.000 et 0.020 er 2.288] 
s 14.994352759 _1_ MAC  --- 0 CTS 38 [4f4 b 0 0] [energy 985.005657 ei 12.687 es 0.000 et 0.020 er 2.288] 
r 14.995612092 _1_ MAC  --- 326 ack 60 [13a 1 b 800] [energy 985.004388 ei 12.687 es 0.000 et 0.020 er 2.289] ------- [21:0 1:0 31 1] [1 0] 2 0
s 14.995622092 _1_ MAC  --- 0 ACK 38 [0 b 0 0] [energy 985.004388 ei 12.687 es 0.000 et 0.020 er 2.289] 
r 14.995637092 _1_ AGT  --- 326 ack 60 [13a 1 b 800] [energy 985.004074 ei 12.687 es 0.000 et 0.020 er 2.289] ------- [21:0 1:0 31 1] [1 0] 2 0
s 14.995637092 _1_ AGT  --- 354 tcp 1040 [0 0 0 0] [energy 985.004074 ei 12.687 es 0.000 et 0.020 er 2.289] ------- [1:0 21:0 32 0] [2 0] 0 0
s 14.995637092 _1_ AGT  --- 355 tcp 1040 [0 0 0 0] [energy 985.004074 ei 12.687 es 0.000 et 0.020 er 2.289] ------- [1:0 21:0 32 0] [3 0] 0 0
s 15.031019843 _1_ MAC  --- 0 RTS 44 [256e b 1 0] [energy 984.969230 ei 12.688 es 0.000 et 0.020 er 2.322] 
r 15.031687176 _1_ MAC  --- 0 CTS 38 [2434 1 0 0] [energy 984.968313 ei 12.688 es 0.000 et 0.021 er 2.323] 
s 15.031697176 _1_ MAC  --- 354 tcp 1118 [13a b 1 800] [energy 984.968313 ei 12.688 es 0.000 et 0.021 er 2.323] ------- [1:0 21:0 32 11] [2 0] 0 0
r 15.040956510 _1_ MAC  --- 0 ACK 38 [0 1 0 0] [energy 984.959043 ei 12.688 es 0.000 et 0.030 er 2.323] 
s 15.041066510 _1_ MAC  --- 0 RTS 44 [256e b 1 0] [energy 984.959043 ei 12.688 es 0.000 et 0.030 er 2.323] 
r 15.041733843 _1_ MAC  --- 0 CTS 38 [2434 1 0 0] [energy 984.958266 ei 12.688 es 0.000 et 0.030 er 2.323] 
s 15.041743843 _1_ MAC  --- 355 tcp 1118 [13a b 1 800] [energy 984.958266 ei 12.688 es 0.000 et 0.030 er 2.323] ------- [1:0 21:0 32 11] [3 0] 0 0
r 15.051003176 _1_ MAC  --- 0 ACK 38 [0 1 0 0] [energy 984.948997 ei 12.688 es 0.000 et 0.039 er 2.324] 
D 15.465413647 _1_ MAC  COL 393 message 126 [0 ffffffff 3 800] [energy 984.534586 ei 12.707 es 0.000 et 0.039 er 2.720] ------- [3:255 -1:255 32 0] 
r 15.514727513 _1_ MAC  --- 0 RTS 44 [62e 1 b 0] [energy 984.485272 ei 12.708 es 0.000 et 0.039 er 2.767] 
s 15.514737513 _1_ MAC  --- 0 CTS 38 [4f4 b 0 0] [energy 984.485272 ei 12.708 es 0.000 et 0.039 er 2.767] 
r 15.515996846 _1_ MAC  --- 361 ack 60 [13a 1 b 800] [energy 984.484003 ei 12.709 es 0.000 et 0.039 er 2.768] ------- [21:0 1:0 31 1] [2 0] 2 0
s 15.516006846 _1_ MAC  --- 0 ACK 38 [0 b 0 0] [energy 984.484003 ei 12.709 es 0.000 et 0.039 er 2.768] 
r 15.516021846 _1_ AGT  --- 361 ack 60 [13a 1 b 800] [energy 984.483689 ei 12.709 es 0.000 et 0.040 er 2.768] ------- [21:0 1:0 31 1] [2 0] 2 0
s 15.516021846 _1_ AGT  --- 402 tcp 1040 [0 0 0 0] [energy 984.483689 ei 12.709 es 0.000 et 0.040 er 2.768] ------- [1:0 21:0 32 0] [4 0] 0 0
s 15.518747925 _1_ MAC  --- 0 RTS 44 [256e b 1 0] [energy 984.481542 ei 12.709 es 0.000 et 0.040 er 2.770] 
r 15.519415258 _1_ MAC  --- 0 CTS 38 [2434 1 0 0] [energy 984.480585 ei 12.709 es 0.000 et 0.040 er 2.770] 
s 15.519425258 _1_ MAC  --- 402 tcp 1118 [13a b 1 800] [energy 984.480585 ei 12.709 es 0.000 et 0.040 er 2.770] ------- [1:0 21:0 32 11] [4 0] 0 0
r 15.528684592 _1_ MAC  --- 0 ACK 38 [0 1 0 0] [energy 984.471315 ei 12.709 es 0.000 et 0.049 er 2.771] 
r 15.559832246 _1_ MAC  --- 0 RTS 44 [62e 1 b 0] [energy 984.440168 ei 12.711 es 0.000 et 0.049 er 2.800] 
s 15.559842246 _1_ MAC  --- 0 CTS 38 [4f4 b 0 0] [energy 984.440168 ei 12.711 es 0.000 et 0.049 er 2.800] 
r 15.561101579 _1_ MAC  --- 364 ack 60 [13a 1 b 800] [energy 984.438898 ei 12.711 es 0.000 et 0.049 er 2.801] ------- [21:0 1:0 31 1] [3 0] 2 0
s 15.561111579 _1_ MAC  --- 0 ACK 38 [0 b 0 0] [energy 984.438898 ei 12.711 es 0.000 et 0.049 er 2.801] 
r 15.561126579 _1_ AGT  --- 364 ack 60 [13a 1 b 800] [energy 984.438584 ei 12.711 es 0.000 et 0.049 er 2.801] ------- [21:0 1:0 31 1] [3 0] 2 0
s 15.561126579 _1_ AGT  --- 408 tcp 1040 [0 0 0 0] [energy 984.438584 ei 12.711 es 0.000 et 0.049 er 2.801] ------- [1:0 21:0 32 0] [5 0] 0 0
s 15.598194313 _1_ MAC  --- 0 RTS 44 [256e b 1 0] [energy 984.401896 ei 12.712 es 0.000 et 0.049 er 2.836] 
r 15.598861646 _1_ MAC  --- 0 CTS 38 [2434 1 0 0] [energy 984.401138 ei 12.712 es 0.000 et 0.050 er 2.837] 
s 15.598871646 _1_ MAC  --- 408 tcp 1118 [13a b 1 800] [energy 984.401138 ei 12.712 es 0.000 et 0.050 er 2.837] ------- [1:0 21:0 32 11] [5 0] 0 0
r 15.608130980 _1_ MAC  --- 0 ACK 38 [0 1 0 0] [energy 984.391869 ei 12.712 es 0.000 et 0.059 er 2.837] 
r 15.716467488 _1_ MAC  --- 0 RTS 44 [62e 1 b 0] [energy 984.283533 ei 12.717 es 0.000 et 0.059 er 2.940] 
s 15.716477488 _1_ MAC  --- 0 CTS 38 [4f4 b 0 0] [energy 984.283533 ei 12.717 es 0.000 et 0.059 er 2.940] 
r 15.717736821 _1_ MAC  --- 414 ack 60 [13a 1 b 800] [energy 984.282263 ei 12.718 es 0.000 et 0.059 er 2.941] ------- [21:0 1:0 31 1] [4 0] 2 0
s 15.717746821 _1_ MAC  --- 0 ACK 38 [0 b 0 0] [energy 984.282263 ei 12.718 es 0.000 et 0.059 er 2.941] 
r 15.717761821 _1_ AGT  --- 414 ack 60 [13a 1 b 800] [energy 984.281949 ei 12.718 es 0.000 et 0.059 er 2.941] ------- [21:0 1:0 31 1] [4 0] 2 0
s 15.717761821 _1_ AGT  --- 421 tcp 1040 [0 0 0 0] [energy 984.281949 ei 12.718 es 0.000 et 0.059 er 2.941] ------- [1:0 21:0 32 0] [6 0] 0 0
s 15.717761821 _1_ AGT  --- 422 tcp 1040 [0 0 0 0] [energy 984.281949 ei 12.718 es 0.000 et 0.059 er 2.941] ------- [1:0 21:0 32 0] [7 0] 0 0
s 15.718240821 _1_ MAC  --- 0 RTS 44 [256e b 1 0] [energy 984.281949 ei 12.718 es 0.000 et 0.059 er 2.941] 
r 15.718908155 _1_ MAC  --- 0 CTS 38 [2434 1 0 0] [energy 984.281092 ei 12.718 es 0.000 et 0.060 er 2.941] 
s 15.718918155 _1_ MAC  --- 421 tcp 1118 [13a b 1 800] [energy 984.281092 ei 12.718 es 0.000 et 0.060 er 2.941] ------- [1:0 21:0 32 11] [6 0] 0 0
r 15.728177488 _1_ MAC  --- 0 ACK 38 [0 1 0 0] [energy 984.271823 ei 12.718 es 0.000 et 0.069 er 2.942] 
r 15.740851488 _1_ MAC  --- 0 RTS 44 [62e 1 b 0] [energy 984.259149 ei 12.718 es 0.000 et 0.069 er 2.954] 
s 15.740861488 _1_ MAC  --- 0 CTS 38 [4f4 b 0 0] [energy 984.259149 ei 12.718 es 0.000 et 0.069 er 2.954] 
r 15.742120821 _1_ MAC  --- 418 ack 60 [13a 1 b 800] [energy 984.257879 ei 12.718 es 0.000 et 0.069 er 2.955] ------- [21:0 1:0 31 1] [5 0] 2 0
s 15.742130821 _1_ MAC  --- 0 ACK 38 [0 b 0 0] [energy 984.257879 ei 12.718 es 0.000 et 0.069 er 2.955] 
r 15.742145821 _1_ AGT  --- 418 ack 60 [13a 1 b 800] [energy 984.257565 ei 12.718 es 0.000 et 0.069 er 2.955] ------- [21:0 1:0 31 1] [5 0] 2 0
s 15.742145821 _1_ AGT  --- 424 tcp 1040 [0 0 0 0] [energy 984.257565 ei 12.718 es 0.000 et 0.069 er 2.955] ------- [1:0 21:0 32 0] [8 0] 0 0
s 15.752752057 _1_ MAC  --- 0 RTS 44 [256e b 1 0] [energy 984.247398 ei 12.719 es 0.000 et 0.069 er 2.965] 
r 15.753419391 _1_ MAC  --- 0 CTS 38 [2434 1 0 0] [energy 984.246581 ei 12.719 es 0.000 et 0.070 er 2.965] 
s 15.753429391 _1_ MAC  --- 422 tcp 1118 [13a b 1 800] [energy 984.246581 ei 12.719 es 0.000 et 0.070 er 2.965] ------- [1:0 21:0 32 11] [7 0] 0 0
r 15.762688724 _1_ MAC  --- 0 ACK 38 [0 1 0 0] [energy 984.237311 ei 12.719 es 0.000 et 0.079 er 2.965] 
s 15.805181668 _1_ MAC  --- 0 RTS 44 [256e b 1 0] [energy 984.194958 ei 12.720 es 0.000 et 0.079 er 3.007] 
D 15.829342805 _1_ MAC  COL 426 message 138 [0 ffffffff 8 800] [energy 984.170657 ei 12.721 es 0.000 et 0.079 er 3.030] ------- [8:255 -1:255 32 0] 
r 15.832255928 _1_ MAC  --- 0 RTS 44 [62e 1 b 0] [energy 984.167744 ei 12.721 es 0.000 et 0.079 er 3.032] 
s 15.832265928 _1_ MAC  --- 0 CTS 38 [4f4 b 0 0] [energy 984.167744 ei 12.721 es 0.000 et 0.079 er 3.032] 
r 15.833525261 _1_ MAC  --- 423 ack 60 [13a 1 b 800] [energy 984.166475 ei 12.721 es 0.000 et 0.079 er 3.033] ------- [21:0 1:0 31 1] [6 0] 2 0
s 15.833535261 _1_ MAC  --- 0 ACK 38 [0 b 0 0] [energy 984.166475 ei 12.721 es 0.000 et 0.079 er 3.033] 
r 15.833550261 _1_ AGT  --- 423 ack 60 [13a 1 b 800] [energy 984.166161 ei 12.721 es 0.000 et 0.080 er 3.033] ------- [21:0 1:0 31 1] [6 0] 2 0
s 15.833550261 _1_ AGT  --- 430 tcp 1040 [0 0 0 0] [energy 984.166161 ei 12.721 es 0.000 et 0.080 er 3.033] ------- [1:0 21:0 32 0] [9 0] 0 0
r 15.846794910 _1_ MAC  --- 0 RTS 44 [62e 1 b 0] [energy 984.153205 ei 12.722 es 0.000 et 0.080 er 3.045] 
s 15.846804910 _1_ MAC  --- 0 CTS 38 [4f4 b 0 0] [energy 984.153205 ei 12.722 es 0.000 et 0.080 er 3.045] 
r 15.848064243 _1_ MAC  --- 427 ack 60 [13a 1 b 800] [energy 984.151936 ei 12.722 es 0.000 et 0.080 er 3.046] ------- [21:0 1:0 31 1] [7 0] 2 0
s 15.848074243 _1_ MAC  --- 0 ACK 38 [0 b 0 0] [energy 984.151936 ei 12.722 es 0.000 et 0.080 er 3.046] 
r 15.848089243 _1_ AGT  --- 427 ack 60 [13a 1 b 800] [energy 984.151622 ei 12.722 es 0.000 et 0.080 er 3.046] ------- [21:0 1:0 31 1] [7 0] 2 0
s 15.848089243 _1_ AGT  --- 432 tcp 1040 [0 0 0 0] [energy 984.151622 ei 12.722 es 0.000 et 0.080 er 3.046] ------- [1:0 21:0 32 0] [10 0] 0 0
s 15.848089243 _1_ AGT  --- 433 tcp 1040 [0 0 0 0] [energy 984.151622 ei 12.722 es 0.000 et 0.080 er 3.046] ------- [1:0 21:0 32 0] [11 0] 0 0
s 15.848508243 _1_ MAC  --- 0 RTS 44 [256e b 1 0] [energy 984.151622 ei 12.722 es 0.000 et 0.080 er 3.046] 
r 15.849175576 _1_ MAC  --- 0 CTS 38 [2434 1 0 0] [energy 984.150824 ei 12.722 es 0.000 et 0.080 er 3.046] 
s 15.849185576 _1_ MAC  --- 424 tcp 1118 [13a b 1 800] [energy 984.150824 ei 12.722 es 0.000 et 0.080 er 3.046] ------- [1:0 21:0 32 11] [8 0] 0 0
r 15.858444910 _1_ MAC  --- 0 ACK 38 [0 1 0 0] [energy 984.141555 ei 12.722 es 0.000 et 0.089 er 3.047] 
s 15.858514910 _1_ MAC  --- 0 RTS 44 [256e b 1 0] [energy 984.141555 ei 12.722 es 0.000 et 0.089 er 3.047] 
r 15.934979464 _1_ MAC  --- 392 message 56 [0 ffffffff 0 800] [energy 984.065021 ei 12.726 es 0.000 et 0.090 er 3.119] ------- [0:255 -1:255 32 0] 
s 16.007965786 _1_ MAC  --- 0 RTS 44 [256e b 1 0] [energy 983.992194 ei 12.729 es 0.000 et 0.090 er 3.189] 
r 16.008633119 _1_ MAC  --- 0 CTS 38 [2434 1 0 0] [energy 983.991367 ei 12.729 es 0.000 et 0.090 er 3.189] 
s 16.008643119 _1_ MAC  --- 430 tcp 1118 [13a b 1 800] [energy 983.991367 ei 12.729 es 0.000 et 0.090 er 3.189] ------- [1:0 21:0 32 11] [9 0] 0 0
r 16.017902452 _1_ MAC  --- 0 ACK 38 [0 1 0 0] [energy 983.982098 ei 12.729 es 0.000 et 0.099 er 3.189] 
D 16.018092864 _1_ MAC  COL 0 RTS 44 [62e 1 b 0] [energy 983.981555 ei 12.730 es 0.000 et 0.099 er 3.190] 
s 16.018958864 _1_ MAC  --- 0 RTS 44 [256e b 1 0] [energy 983.981555 ei 12.730 es 0.000 et 0.099 er 3.190] 
r 16.019626198 _1_ MAC  --- 0 CTS 38 [2434 1 0 0] [energy 983.980374 ei 12.730 es 0.000 et 0.099 er 3.190] 
s 16.019636198 _1_ MAC  --- 432 tcp 1118 [13a b 1 800] [energy 983.980374 ei 12.730 es 0.000 et 0.099 er 3.190] ------- [1:0 21:0 32 11] [10 0] 0 0
r 16.028895531 _1_ MAC  --- 0 ACK 38 [0 1 0 0] [energy 983.971104 ei 12.730 es 0.000 et 0.108 er 3.190] 
r 16.039484610 _1_ MAC  --- 0 RTS 44 [62e 1 b 0] [energy 983.960515 ei 12.731 es 0.000 et 0.108 er 3.201] 
s 16.039494610 _1_ MAC  --- 0 CTS 38 [4f4 b 0 0] [energy 983.960515 ei 12.731 es 0.000 et 0.108 er 3.201] 
r 16.040753943 _1_ MAC  --- 438 ack 60 [13a 1 b 800] [energy 983.959246 ei 12.731 es 0.000 et 0.109 er 3.202] ------- [21:0 1:0 31 1] [8 0] 2 0
s 16.040763943 _1_ MAC  --- 0 ACK 38 [0 b 0 0] [energy 983.959246 ei 12.731 es 0.000 et 0.109 er 3.202] 
r 16.040778943 _1_ AGT  --- 438 ack 60 [13a 1 b 800] [energy 983.958932 ei 12.731 es 0.000 et 0.109 er 3.202] ------- [21:0 1:0 31 1] [8 0] 2 0
s 16.040778943 _1_ AGT  --- 445 tcp 1040 [0 0 0 0] [energy 983.958932 ei 12.731 es 0.000 et 0.109 er 3.202] ------- [1:0 21:0 32 0] [12 0] 0 0
s 16.059641711 _1_ MAC  --- 0 RTS 44 [256e b 1 0] [energy 983.940538 ei 12.731 es 0.000 et 0.109 er 3.219] 
r 16.060309044 _1_ MAC  --- 0 CTS 38 [2434 1 0 0] [energy 983.939691 ei 12.732 es 0.000 et 0.109 er 3.219] 
s 16.060319044 _1_ MAC  --- 433 tcp 1118 [13a b 1 800] [energy 983.939691 ei 12.732 es 0.000 et 0.109 er 3.219] ------- [1:0 21:0 32 11] [11 0] 0 0
r 16.069578378 _1_ MAC  --- 0 ACK 38 [0 1 0 0] [energy 983.930422 ei 12.732 es 0.000 et 0.118 er 3.220] 
s 16.110439756 _1_ MAC  --- 0 RTS 44 [256e b 1 0] [energy 983.889780 ei 12.733 es 0.000 et 0.118 er 3.259] 
s 16.134462818 _1_ MAC  --- 0 RTS 44 [256e b 1 0] [energy 983.865657 ei 12.735 es 0.000 et 0.119 er 3.281] 
r 16.135130152 _1_ MAC  --- 0 CTS 38 [2434 1 0 0] [energy 983.864870 ei 12.735 es 0.000 et 0.119 er 3.281] 
s 16.135140152 _1_ MAC  --- 445 tcp 1118 [13a b 1 800] [energy 983.864870 ei 12.735 es 0.000 et 0.119 er 3.281] ------- [1:0 21:0 32 11] [12 0] 0 0
r 16.144399485 _1_ MAC  --- 0 ACK 38 [0 1 0 0] [energy 983.855601 ei 12.735 es 0.000 et 0.128 er 3.282] 
r 16.144901485 _1_ MAC  --- 0 RTS 44 [62e 1 b 0] [energy 983.855099 ei 12.735 es 0.000 et 0.128 er 3.282] 
s 16.144911485 _1_ MAC  --- 0 CTS 38 [4f4 b 0 0] [energy 983.855099 ei 12.735 es 0.000 et 0.128 er 3.282] 
r 16.146170818 _1_ MAC  --- 448 ack 60 [13a 1 b 800] [energy 983.853829 ei 12.735 es 0.000 et 0.128 er 3.283] ------- [21:0 1:0 31 1] [9 0] 2 0
s 16.146180818 _1_ MAC  --- 0 ACK 38 [0 b 0 0] [energy 983.853829 ei 12.735 es 0.000 et 0.128 er 3.283] 
r 16.146195818 _1_ AGT  --- 448 ack 60 [13a 1 b 800] [energy 983.853515 ei 12.735 es 0.000 et 0.129 er 3.283] ------- [21:0 1:0 31 1] [9 0] 2 0
s 16.146195818 _1_ AGT  --- 453 tcp 1040 [0 0 0 0] [energy 983.853515 ei 12.735 es 0.000 et 0.129 er 3.283] ------- [1:0 21:0 32 0] [13 0] 0 0
r 16.147088152 _1_ MAC  --- 0 RTS 44 [62e 1 b 0] [energy 983.852912 ei 12.735 es 0.000 et 0.129 er 3.283] 
s 16.147098152 _1_ MAC  --- 0 CTS 38 [4f4 b 0 0] [energy 983.852912 ei 12.735 es 0.000 et 0.129 er 3.283] 
r 16.148357485 _1_ MAC  --- 449 ack 60 [13a 1 b 800] [energy 983.851643 ei 12.735 es 0.000 et 0.129 er 3.284] ------- [21:0 1:0 31 1] [10 0] 2 0
s 16.148367485 _1_ MAC  --- 0 ACK 38 [0 b 0 0] [energy 983.851643 ei 12.735 es 0.000 et 0.129 er 3.284] 
r 16.148382485 _1_ AGT  --- 449 ack 60 [13a 1 b 800] [energy 983.851329 ei 12.735 es 0.000 et 0.129 er 3.284] ------- [21:0 1:0 31 1] [10 0] 2 0
s 16.148382485 _1_ AGT  --- 454 tcp 1040 [0 0 0 0] [energy 983.851329 ei 12.735 es 0.000 et 0.129 er 3.284] ------- [1:0 21:0 32 0] [14 0] 0 0
s 16.148781485 _1_ MAC  --- 0 RTS 44 [256e b 1 0] [energy 983.851329 ei 12.735 es 0.000 et 0.129 er 3.284] 
r 16.149448818 _1_ MAC  --- 0 CTS 38 [2434 1 0 0] [energy 983.850551 ei 12.736 es 0.000 et 0.129 er 3.284] 
s 16.149458818 _1_ MAC  --- 453 tcp 1118 [13a b 1 800] [energy 983.850551 ei 12.736 es 0.000 et 0.129 er 3.284] ------- [1:0 21:0 32 11] [13 0] 0 0
r 16.158718152 _1_ MAC  --- 0 ACK 38 [0 1 0 0] [energy 983.841282 ei 12.736 es 0.000 et 0.138 er 3.285] 
s 16.158808152 _1_ MAC  --- 0 RTS 44 [256e b 1 0] [energy 983.841282 ei 12.736 es 0.000 et 0.138 er 3.285] 
r 16.159475485 _1_ MAC  --- 0 CTS 38 [2434 1 0 0] [energy 983.840525 ei 12.736 es 0.000 et 0.139 er 3.285] 
s 16.159485485 _1_ MAC  --- 454 tcp 1118 [13a b 1 800] [energy 983.840525 ei 12.736 es 0.000 et 0.139 er 3.285] ------- [1:0 21:0 32 11] [14 0] 0 0
r 16.168744818 _1_ MAC  --- 0 ACK 38 [0 1 0 0] [energy 983.831255 ei 12.736 es 0.000 et 0.148 er 3.285] 
r 16.273801118 _1_ MAC  --- 0 RTS 44 [62e 1 b 0] [energy 983.726199 ei 12.739 es 0.000 et 0.148 er 3.387] 
s 16.273811118 _1_ MAC  --- 0 CTS 38 [4f4 b 0 0] [energy 983.726199 ei 12.739 es 0.000 et 0.148 er 3.387] 
r 16.275070452 _1_ MAC  --- 452 ack 60 [13a 1 b 800] [energy 983.724930 ei 12.739 es 0.000 et 0.148 er 3.388] ------- [21:0 1:0 31 1] [11 0] 2 0
s 16.275080452 _1_ MAC  --- 0 ACK 38 [0 b 0 0] [energy 983.724930 ei 12.739 es 0.000 et 0.148 er 3.388] 
r 16.275095452 _1_ AGT  --- 452 ack 60 [13a 1 b 800] [energy 983.724616 ei 12.739 es 0.000 et 0.148 er 3.388] ------- [21:0 1:0 31 1] [11 0] 2 0
s 16.275095452 _1_ AGT  --- 462 tcp 1040 [0 0 0 0] [energy 983.724616 ei 12.739 es 0.000 et 0.148 er 3.388] ------- [1:0 21:0 32 0] [15 0] 0 0
s 16.275514452 _1_ MAC  --- 0 RTS 44 [256e b 1 0] [energy 983.724616 ei 12.739 es 0.000 et 0.148 er 3.388] 
r 16.276181785 _1_ MAC  --- 0 CTS 38 [2434 1 0 0] [energy 983.723818 ei 12.740 es 0.000 et 0.149 er 3.388] 
s 16.276191785 _1_ MAC  --- 462 tcp 1118 [13a b 1 800] [energy 983.723818 ei 12.740 es 0.000 et 0.149 er 3.388] ------- [1:0 21:0 32 11] [15 0] 0 0
r 16.285451118 _1_ MAC  --- 0 ACK 38 [0 1 0 0] [energy 983.714549 ei 12.740 es 0.000 et 0.158 er 3.388] 
r 16.302643298 _1_ MAC  --- 0 RTS 44 [62e 1 b 0] [energy 983.697357 ei 12.741 es 0.000 et 0.158 er 3.404] 
s 16.302653298 _1_ MAC  --- 0 CTS 38 [4f4 b 0 0] [energy 983.697357 ei 12.741 es 0.000 et 0.158 er 3.404] 
r 16.303912632 _1_ MAC  --- 458 ack 60 [13a 1 b 800] [energy 983.696087 ei 12.741 es 0.000 et 0.158 er 3.405] ------- [21:0 1:0 31 1] [12 0] 2 0
s 16.303922632 _1_ MAC  --- 0 ACK 38 [0 b 0 0] [energy 983.696087 ei 12.741 es 0.000 et 0.158 er 3.405] 
r 16.303937632 _1_ AGT  --- 458 ack 60 [13a 1 b 800] [energy 983.695773 ei 12.741 es 0.000 et 0.158 er 3.405] ------- [21:0 1:0 31 1] [12 0] 2 0
s 16.303937632 _1_ AGT  --- 466 tcp 1040 [0 0 0 0] [energy 983.695773 ei 12.741 es 0.000 et 0.158 er 3.405] ------- [1:0 21:0 32 0] [16 0] 0 0