D 5.000000000 _6_ IFQ  ARP 47 tcp 60 [0 0 6 800] [energy 998.318956 ei 1.664 es 0.000 et 0.001 er 0.016] ------- [6:2 0:1 32 0] [0 0] 0 0
D 5.000000000 _7_ IFQ  ARP 44 tcp 60 [0 0 7 800] [energy 998.318956 ei 1.664 es 0.000 et 0.001 er 0.016] ------- [7:3 2:5 32 2] [0 0] 0 0
D 5.000000000 _22_ IFQ  ARP 36 tcp 60 [0 0 16 800] [energy 998.318957 ei 1.664 es 0.000 et 0.001 er 0.016] ------- [22:3 17:0 32 17] [0 0] 0 0
D 5.000000000 _7_ IFQ  ARP 54 tcp 60 [0 0 7 800] [energy 998.318956 ei 1.664 es 0.000 et 0.001 er 0.016] ------- [7:5 2:6 32 2] [0 0] 0 0
D 5.000000000 _20_ IFQ  ARP 50 tcp 60 [0 0 14 800] [energy 998.318974 ei 1.665 es 0.000 et 0.001 er 0.015] ------- [20:1 17:1 32 17] [0 0] 0 0
D 5.000000000 _5_ IFQ  ARP 75 tcp 60 [0 0 5 800] [energy 998.318956 ei 1.664 es 0.000 et 0.001 er 0.016] ------- [5:3 11:3 32 11] [0 0] 0 0
D 5.000000000 _22_ IFQ  ARP 124 tcp 60 [0 0 16 800] [energy 998.318957 ei 1.664 es 0.000 et 0.001 er 0.016] ------- [22:11 24:6 32 24] [0 0] 0 0
D 5.000000000 _7_ IFQ  ARP 42 tcp 60 [0 0 7 800] [energy 998.318956 ei 1.664 es 0.000 et 0.001 er 0.016] ------- [7:1 11:2 32 11] [0 0] 0 0
D 5.000000000 _6_ IFQ  ARP 52 tcp 60 [0 0 6 800] [energy 998.318956 ei 1.664 es 0.000 et 0.001 er 0.016] ------- [6:3 0:3 32 0] [0 0] 0 0
D 5.000000000 _13_ IFQ  ARP 144 tcp 60 [0 0 d 800] [energy 998.318956 ei 1.664 es 0.000 et 0.001 er 0.016] ------- [13:10 4:12 32 4] [0 0] 0 0
D 5.000000000 _2_ IFQ  ARP 72 tcp 60 [0 0 2 800] [energy 998.318956 ei 1.664 es 0.000 et 0.001 er 0.016] ------- [2:8 1:5 32 1] [0 0] 0 0
D 5.000000000 _14_ IFQ  ARP 27 tcp 60 [0 0 e 800] [energy 998.318956 ei 1.664 es 0.000 et 0.001 er 0.016] ------- [14:2 8:0 32 8] [0 0] 0 0
D 5.000000000 _3_ IFQ  ARP 188 tcp 60 [0 0 3 800] [energy 998.318956 ei 1.664 es 0.000 et 0.001 er 0.016] ------- [3:12 13:12 32 13] [0 0] 0 0
D 5.000000000 _15_ IFQ  ARP 85 tcp 60 [0 0 f 800] [energy 998.318956 ei 1.664 es 0.000 et 0.001 er 0.016] ------- [15:6 17:5 32 17] [0 0] 0 0
D 5.000000000 _19_ IFQ  ARP 136 tcp 60 [0 0 13 800] [energy 998.318956 ei 1.664 es 0.000 et 0.001 er 0.016] ------- [19:7 8:11 32 8] [0 0] 0 0
D 5.000000000 _14_ IFQ  ARP 49 tcp 60 [0 0 e 800] [energy 998.318956 ei 1.664 es 0.000 et 0.001 er 0.016] ------- [14:5 3:3 32 3] [0 0] 0 0
D 5.000000000 _18_ IFQ  ARP 96 tcp 60 [0 0 12 800] [energy 998.318956 ei 1.664 es 0.000 et 0.001 er 0.016] ------- [18:4 7:8 32 7] [0 0] 0 0
D 5.000000000 _23_ IFQ  ARP 179 tcp 60 [0 0 17 800] [energy 998.318956 ei 1.664 es 0.000 et 0.001 er 0.016] ------- [23:11 18:7 32 18] [0 0] 0 0
D 5.000000000 _2_ IFQ  ARP 196 tcp 60 [0 0 2 800] [energy 998.318956 ei 1.664 es 0.000 et 0.001 er 0.016] ------- [2:16 1:16 32 1] [0 0] 0 0
D 5.000000000 _14_ IFQ  ARP 228 tcp 60 [0 0 e 800] [energy 998.318956 ei 1.664 es 0.000 et 0.001 er 0.016] ------- [14:15 3:19 32 3] [0 0] 0 0
D 5.000000000 _2_ RTR  CBK 237 tcp 60 [0 0 2 800] [energy 998.318956 ei 1.664 es 0.000 et 0.001 er 0.016] ------- [2:20 1:18 32 1] [0 0] 0 0
D 5.000000000 _2_ RTR  CBK 243 tcp 60 [0 0 2 800] [energy 998.318956 ei 1.664 es 0.000 et 0.001 er 0.016] ------- [2:21 1:19 32 1] [0 0] 0 0
D 5.000000000 _8_ IFQ  ARP 178 tcp 60 [0 0 8 800] [energy 998.318956 ei 1.664 es 0.000 et 0.001 er 0.016] ------- [8:14 17:14 32 17] [0 0] 0 0
D 5.000000000 _5_ IFQ  ARP 214 tcp 60 [0 0 5 800] [energy 998.318956 ei 1.664 es 0.000 et 0.001 er 0.016] ------- [5:12 7:22 32 7] [0 0] 0 0
D 5.000000000 _7_ IFQ  ARP 177 tcp 60 [0 0 7 800] [energy 998.318956 ei 1.664 es 0.000 et 0.001 er 0.016] ------- [7:18 11:13 32 11] [0 0] 0 0
D 5.000000000 _14_ RTR  CBK 239 tcp 60 [0 0 e 800] [energy 998.318956 ei 1.664 es 0.000 et 0.001 er 0.016] ------- [14:17 3:21 32 3] [0 0] 0 0
D 5.000000000 _14_ RTR  CBK 268 tcp 60 [0 0 e 800] [energy 998.318956 ei 1.664 es 0.000 et 0.001 er 0.016] ------- [14:19 3:24 32 3] [0 0] 0 0
D 5.000000000 _1_ IFQ  ARP 111 tcp 60 [0 0 1 800] [energy 998.318956 ei 1.664 es 0.000 et 0.001 er 0.016] ------- [1:7 12:3 32 12] [0 0] 0 0
D 5.000000000 _4_ IFQ  ARP 226 tcp 60 [0 0 4 800] [energy 998.318973 ei 1.665 es 0.000 et 0.001 er 0.015] ------- [4:16 8:22 32 8] [0 0] 0 0
D 5.000000000 _21_ IFQ  ARP 103 tcp 60 [0 0 15 800] [energy 998.318956 ei 1.664 es 0.000 et 0.001 er 0.016] ------- [21:6 10:6 32 10] [0 0] 0 0
D 5.000000000 _8_ IFQ  ARP 153 tcp 60 [0 0 8 800] [energy 998.318956 ei 1.664 es 0.000 et 0.001 er 0.016] ------- [8:12 12:7 32 12] [0 0] 0 0
D 5.000000000 _15_ IFQ  ARP 165 tcp 60 [0 0 f 800] [energy 998.318956 ei 1.664 es 0.000 et 0.001 er 0.016] ------- [15:12 20:14 32 20] [0 0] 0 0
D 5.000000000 _10_ IFQ  ARP 278 tcp 60 [0 0 a 800] [energy 998.318956 ei 1.664 es 0.000 et 0.001 er 0.016] ------- [10:24 15:22 32 15] [0 0] 0 0
D 5.000000000 _5_ IFQ  ARP 251 tcp 60 [0 0 5 800] [energy 998.318956 ei 1.664 es 0.000 et 0.001 er 0.016] ------- [5:13 7:25 32 7] [0 0] 0 0
D 5.000000000 _17_ IFQ  ARP 211 tcp 60 [0 0 11 800] [energy 998.318956 ei 1.664 es 0.000 et 0.001 er 0.016] ------- [17:16 22:18 32 22] [0 0] 0 0
D 5.000000000 _5_ IFQ  ARP 167 tcp 60 [0 0 5 800] [energy 998.318956 ei 1.664 es 0.000 et 0.001 er 0.016] ------- [5:10 11:12 32 11] [0 0] 0 0
D 5.000000000 _24_ IFQ  ARP 231 tcp 60 [0 0 18 800] [energy 998.318974 ei 1.665 es 0.000 et 0.001 er 0.015] ------- [24:17 18:12 32 18] [0 0] 0 0
D 5.000000000 _20_ IFQ  ARP 252 tcp 60 [0 0 14 800] [energy 998.318974 ei 1.665 es 0.000 et 0.001 er 0.015] ------- [20:18 10:19 32 10] [0 0] 0 0
D 5.000000000 _11_ IFQ  ARP 161 tcp 60 [0 0 b 800] [energy 998.318956 ei 1.664 es 0.000 et 0.001 er 0.016] ------- [11:11 8:13 32 8] [0 0] 0 0
D 5.000000000 _2_ IFQ  ARP 253 tcp 60 [0 0 2 800] [energy 998.318956 ei 1.664 es 0.000 et 0.001 er 0.016] ------- [2:22 4:17 32 4] [0 0] 0 0
D 5.000000000 _22_ IFQ  ARP 168 tcp 60 [0 0 16 800] [energy 998.318957 ei 1.664 es 0.000 et 0.001 er 0.016] ------- [22:14 24:9 32 24] [0 0] 0 0
D 5.000000000 _16_ IFQ  ARP 291 tcp 60 [0 0 10 800] [energy 998.318956 ei 1.664 es 0.000 et 0.001 er 0.016] ------- [16:15 5:17 32 5] [0 0] 0 0
D 5.000000000 _22_ RTR  CBK 344 tcp 60 [0 0 16 800] [energy 998.318957 ei 1.664 es 0.000 et 0.001 er 0.016] ------- [22:29 24:28 32 24] [0 0] 0 0
D 5.000000000 _22_ RTR  CBK 349 tcp 60 [0 0 16 800] [energy 998.318957 ei 1.664 es 0.000 et 0.001 er 0.016] ------- [22:30 24:30 32 24] [0 0] 0 0
D 5.000000000 _10_ IFQ  ARP 225 tcp 60 [0 0 a 800] [energy 998.318956 ei 1.664 es 0.000 et 0.001 er 0.016] ------- [10:14 12:9 32 12] [0 0] 0 0
D 5.000000000 _16_ IFQ  ARP 345 tcp 60 [0 0 10 800] [energy 998.318956 ei 1.664 es 0.000 et 0.001 er 0.016] ------- [16:20 5:23 32 5] [0 0] 0 0
D 5.000000000 _1_ IFQ  ARP 195 tcp 60 [0 0 1 800] [energy 998.318956 ei 1.664 es 0.000 et 0.001 er 0.016] ------- [1:15 6:18 32 6] [0 0] 0 0
D 5.000000000 _15_ IFQ  ARP 216 tcp 60 [0 0 f 800] [energy 998.318956 ei 1.664 es 0.000 et 0.001 er 0.016] ------- [15:18 17:17 32 17] [0 0] 0 0
D 5.000000000 _20_ IFQ  ARP 112 tcp 60 [0 0 14 800] [energy 998.318974 ei 1.665 es 0.000 et 0.001 er 0.015] ------- [20:9 21:7 32 21] [0 0] 0 0
D 5.000000000 _1_ IFQ  ARP 273 tcp 60 [0 0 1 800] [energy 998.318956 ei 1.664 es 0.000 et 0.001 er 0.016] ------- [1:24 12:13 32 12] [0 0] 0 0
D 5.000000000 _7_ IFQ  ARP 204 tcp 60 [0 0 7 800] [energy 998.318956 ei 1.664 es 0.000 et 0.001 er 0.016] ------- [7:21 6:20 32 6] [0 0] 0 0
D 5.000000000 _13_ IFQ  ARP 189 tcp 60 [0 0 d 800] [energy 998.318956 ei 1.664 es 0.000 et 0.001 er 0.016] ------- [13:13 24:12 32 24] [0 0] 0 0
D 5.000000000 _18_ IFQ  ARP 255 tcp 60 [0 0 12 800] [energy 998.318956 ei 1.664 es 0.000 et 0.001 er 0.016] ------- [18:15 8:25 32 8] [0 0] 0 0
D 5.000000000 _22_ IFQ  ARP 257 tcp 60 [0 0 16 800] [energy 998.318957 ei 1.664 es 0.000 et 0.001 er 0.016] ------- [22:20 15:20 32 15] [0 0] 0 0
D 5.000000000 _15_ IFQ  ARP 76 tcp 60 [0 0 f 800] [energy 998.318956 ei 1.664 es 0.000 et 0.001 er 0.016] ------- [15:5 11:4 32 11] [0 0] 0 0
D 5.000000000 _13_ IFQ  ARP 381 tcp 60 [0 0 d 800] [energy 998.318956 ei 1.664 es 0.000 et 0.001 er 0.016] ------- [13:25 24:32 32 24] [0 0] 0 0
D 5.000000000 _21_ IFQ  ARP 73 tcp 60 [0 0 15 800] [energy 998.318956 ei 1.664 es 0.000 et 0.001 er 0.016] ------- [21:3 18:2 32 18] [0 0] 0 0
D 5.000000000 _7_ IFQ  ARP 380 tcp 60 [0 0 7 800] [energy 998.318956 ei 1.664 es 0.000 et 0.001 er 0.016] ------- [7:34 6:31 32 6] [0 0] 0 0
D 5.000000000 _2_ IFQ  ARP 343 tcp 60 [0 0 2 800] [energy 998.318956 ei 1.664 es 0.000 et 0.001 er 0.016] ------- [2:26 4:27 32 4] [0 0] 0 0
D 5.000000000 _18_ IFQ  ARP 389 tcp 60 [0 0 12 800] [energy 998.318956 ei 1.664 es 0.000 et 0.001 er 0.016] ------- [18:21 8:37 32 8] [0 0] 0 0
D 5.000000000 _1_ IFQ  ARP 218 tcp 60 [0 0 1 800] [energy 998.318956 ei 1.664 es 0.000 et 0.001 er 0.016] ------- [1:17 8:20 32 8] [0 0] 0 0
D 5.000000000 _0_ IFQ  ARP 69 tcp 60 [0 0 0 800] [energy 998.318973 ei 1.665 es 0.000 et 0.001 er 0.015] ------- [0:7 1:3 32 1] [0 0] 0 0
D 5.000000000 _10_ IFQ  ARP 256 tcp 60 [0 0 a 800] [energy 998.318956 ei 1.664 es 0.000 et 0.001 er 0.016] ------- [10:20 6:22 32 6] [0 0] 0 0
D 5.000000000 _11_ IFQ  ARP 110 tcp 60 [0 0 b 800] [energy 998.318956 ei 1.664 es 0.000 et 0.001 er 0.016] ------- [11:7 20:8 32 20] [0 0] 0 0
D 5.000000000 _14_ IFQ  ARP 340 tcp 60 [0 0 e 800] [energy 998.318956 ei 1.664 es 0.000 et 0.001 er 0.016] ------- [14:25 19:24 32 19] [0 0] 0 0
D 5.000000000 _3_ IFQ  ARP 149 tcp 60 [0 0 3 800] [energy 998.318956 ei 1.664 es 0.000 et 0.001 er 0.016] ------- [3:9 6:14 32 6] [0 0] 0 0
D 5.000000000 _12_ IFQ  ARP 244 tcp 60 [0 0 c 800] [energy 998.318956 ei 1.664 es 0.000 et 0.001 er 0.016] ------- [12:12 16:12 32 16] [0 0] 0 0
D 5.000000000 _9_ IFQ  ARP 127 tcp 60 [0 0 9 800] [energy 998.318956 ei 1.664 es 0.000 et 0.001 er 0.016] ------- [9:8 3:7 32 3] [0 0] 0 0
D 5.000000000 _16_ RTR  CBK 364 tcp 60 [0 0 10 800] [energy 998.318956 ei 1.664 es 0.000 et 0.001 er 0.016] ------- [16:22 5:24 32 5] [0 0] 0 0
D 5.000000000 _16_ RTR  CBK 450 tcp 60 [0 0 10 800] [energy 998.318956 ei 1.664 es 0.000 et 0.001 er 0.016] ------- [16:34 5:26 32 5] [0 0] 0 0
D 5.000000000 _0_ IFQ  ARP 104 tcp 60 [0 0 0 800] [energy 998.318973 ei 1.665 es 0.000 et 0.001 er 0.015] ------- [0:9 2:11 32 2] [0 0] 0 0
D 5.000000000 _19_ IFQ  ARP 400 tcp 60 [0 0 13 800] [energy 998.318956 ei 1.664 es 0.000 et 0.001 er 0.016] ------- [19:28 22:36 32 22] [0 0] 0 0
D 5.000000000 _15_ IFQ  ARP 401 tcp 60 [0 0 f 800] [energy 998.318956 ei 1.664 es 0.000 et 0.001 er 0.016] ------- [15:40 11:34 32 11] [0 0] 0 0
D 5.000000000 _0_ IFQ  ARP 430 tcp 60 [0 0 0 800] [energy 998.318973 ei 1.665 es 0.000 et 0.001 er 0.015] ------- [0:27 1:38 32 1] [0 0] 0 0
D 5.000000000 _11_ IFQ  ARP 406 tcp 60 [0 0 b 800] [energy 998.318956 ei 1.664 es 0.000 et 0.001 er 0.016] ------- [11:35 0:24 32 0] [0 0] 0 0
D 5.000000000 _11_ IFQ  ARP 435 tcp 60 [0 0 b 800] [energy 998.318956 ei 1.664 es 0.000 et 0.001 er 0.016] ------- [11:38 20:27 32 20] [0 0] 0 0
D 5.000000000 _2_ IFQ  ARP 220 tcp 60 [0 0 2 800] [energy 998.318956 ei 1.664 es 0.000 et 0.001 er 0.016] ------- [2:19 11:18 32 11] [0 0] 0 0
D 5.000000000 _15_ RTR  CBK 372 tcp 60 [0 0 f 800] [energy 998.318956 ei 1.664 es 0.000 et 0.001 er 0.016] ------- [15:35 17:28 32 17] [0 0] 0 0
D 5.000000000 _15_ RTR  CBK 484 tcp 60 [0 0 f 800] [energy 998.318956 ei 1.664 es 0.000 et 0.001 er 0.016] ------- [15:47 17:38 32 17] [0 0] 0 0
D 5.000000000 _19_ IFQ  ARP 258 tcp 60 [0 0 13 800] [energy 998.318956 ei 1.664 es 0.000 et 0.001 er 0.016] ------- [19:17 14:18 32 14] [0 0] 0 0
D 5.000000000 _0_ IFQ  ARP 443 tcp 60 [0 0 0 800] [energy 998.318973 ei 1.665 es 0.000 et 0.001 er 0.015] ------- [0:31 11:39 32 11] [0 0] 0 0
D 5.000000000 _19_ IFQ  ARP 462 tcp 60 [0 0 13 800] [energy 998.318956 ei 1.664 es 0.000 et 0.001 er 0.016] ------- [19:37 22:40 32 22] [0 0] 0 0
D 5.000000000 _7_ IFQ  ARP 56 tcp 60 [0 0 7 800] [energy 998.318956 ei 1.664 es 0.000 et 0.001 er 0.016] ------- [7:6 0:4 32 0] [0 0] 0 0
D 5.000000000 _1_ IFQ  ARP 485 tcp 60 [0 0 1 800] [energy 998.318956 ei 1.664 es 0.000 et 0.001 er 0.016] ------- [1:44 5:30 32 5] [0 0] 0 0
D 5.000000000 _3_ IFQ  ARP 206 tcp 60 [0 0 3 800] [energy 998.318956 ei 1.664 es 0.000 et 0.001 er 0.016] ------- [3:15 13:15 32 13] [0 0] 0 0
D 5.000000000 _23_ IFQ  ARP 361 tcp 60 [0 0 17 800] [energy 998.318956 ei 1.664 es 0.000 et 0.001 er 0.016] ------- [23:22 12:23 32 12] [0 0] 0 0
D 5.000000000 _7_ IFQ  ARP 505 tcp 60 [0 0 7 800] [energy 998.318956 ei 1.664 es 0.000 et 0.001 er 0.016] ------- [7:45 0:39 32 0] [0 0] 0 0
D 5.000000000 _6_ IFQ  ARP 200 tcp 60 [0 0 6 800] [energy 998.318956 ei 1.664 es 0.000 et 0.001 er 0.016] ------- [6:19 7:20 32 7] [0 0] 0 0
D 5.000000000 _7_ IFQ  ARP 51 tcp 60 [0 0 7 800] [energy 998.318956 ei 1.664 es 0.000 et 0.001 er 0.016] ------- [7:4 13:0 32 13] [0 0] 0 0
D 5.000000000 _7_ RTR  CBK 254 tcp 60 [0 0 7 800] [energy 998.318956 ei 1.664 es 0.000 et 0.001 er 0.016] ------- [7:26 11:22 32 11] [0 0] 0 0
D 5.000000000 _7_ RTR  CBK 524 tcp 60 [0 0 7 800] [energy 998.318956 ei 1.664 es 0.000 et 0.001 er 0.016] ------- [7:51 11:51 32 11] [0 0] 0 0
D 5.000000000 _1_ IFQ  ARP 186 tcp 60 [0 0 1 800] [energy 998.318956 ei 1.664 es 0.000 et 0.001 er 0.016] ------- [1:14 10:12 32 10] [0 0] 0 0
D 5.000000000 _1_ IFQ  ARP 359 tcp 60 [0 0 1 800] [energy 998.318956 ei 1.664 es 0.000 et 0.001 er 0.016] ------- [1:31 11:28 32 11] [0 0] 0 0
D 5.000000000 _14_ IFQ  ARP 197 tcp 60 [0 0 e 800] [energy 998.318956 ei 1.664 es 0.000 et 0.001 er 0.016] ------- [14:13 8:16 32 8] [0 0] 0 0
D 5.000000000 _20_ IFQ  ARP 373 tcp 60 [0 0 14 800] [energy 998.318974 ei 1.665 es 0.000 et 0.001 er 0.015] ------- [20:24 21:25 32 21] [0 0] 0 0
D 5.000000000 _15_ IFQ  ARP 301 tcp 60 [0 0 f 800] [energy 998.318956 ei 1.664 es 0.000 et 0.001 er 0.016] ------- [15:26 12:17 32 12] [0 0] 0 0
D 5.000000000 _7_ IFQ  ARP 455 tcp 60 [0 0 7 800] [energy 998.318956 ei 1.664 es 0.000 et 0.001 er 0.016] ------- [7:40 14:31 32 14] [0 0] 0 0
D 5.000000000 _13_ IFQ  ARP 141 tcp 60 [0 0 d 800] [energy 998.318956 ei 1.664 es 0.000 et 0.001 er 0.016] ------- [13:9 23:6 32 23] [0 0] 0 0
D 5.000000000 _11_ IFQ  ARP 479 tcp 60 [0 0 b 800] [energy 998.318956 ei 1.664 es 0.000 et 0.001 er 0.016] ------- [11:43 0:35 32 0] [0 0] 0 0
D 5.000000000 _12_ IFQ  ARP 447 tcp 60 [0 0 c 800] [energy 998.318956 ei 1.664 es 0.000 et 0.001 er 0.016] ------- [12:27 16:33 32 16] [0 0] 0 0
D 5.000000000 _23_ IFQ  ARP 234 tcp 60 [0 0 17 800] [energy 998.318956 ei 1.664 es 0.000 et 0.001 er 0.016] ------- [23:13 18:14 32 18] [0 0] 0 0
D 5.000000000 _23_ IFQ  ARP 146 tcp 60 [0 0 17 800] [energy 998.318956 ei 1.664 es 0.000 et 0.001 er 0.016] ------- [23:7 13:11 32 13] [0 0] 0 0
D 5.000000000 _3_ IFQ  ARP 240 tcp 60 [0 0 3 800] [energy 998.318956 ei 1.664 es 0.000 et 0.001 er 0.016] ------- [3:22 12:11 32 12] [0 0] 0 0
D 5.000000000 _6_ IFQ  ARP 190 tcp 60 [0 0 6 800] [energy 998.318956 ei 1.664 es 0.000 et 0.001 er 0.016] ------- [6:17 15:13 32 15] [0 0] 0 0
D 5.000000000 _6_ IFQ  ARP 517 tcp 60 [0 0 6 800] [energy 998.318956 ei 1.664 es 0.000 et 0.001 er 0.016] ------- [6:41 7:49 32 7] [0 0] 0 0
D 5.000000000 _9_ IFQ  ARP 419 tcp 60 [0 0 9 800] [energy 998.318956 ei 1.664 es 0.000 et 0.001 er 0.016] ------- [9:28 19:32 32 19] [0 0] 0 0
D 5.000000000 _4_ IFQ  ARP 309 tcp 60 [0 0 4 800] [energy 998.318973 ei 1.665 es 0.000 et 0.001 er 0.015] ------- [4:24 7:28 32 7] [0 0] 0 0
D 5.000000000 _4_ IFQ  ARP 560 tcp 60 [0 0 4 800] [energy 998.318973 ei 1.665 es 0.000 et 0.001 er 0.015] ------- [4:42 7:56 32 7] [0 0] 0 0
D 5.000000000 _8_ IFQ  ARP 113 tcp 60 [0 0 8 800] [energy 998.318956 ei 1.664 es 0.000 et 0.001 er 0.016] ------- [8:9 14:8 32 14] [0 0] 0 0
D 5.000000000 _12_ IFQ  ARP 539 tcp 60 [0 0 c 800] [energy 998.318956 ei 1.664 es 0.000 et 0.001 er 0.016] ------- [12:33 19:42 32 19] [0 0] 0 0
D 5.000000000 _16_ IFQ  ARP 133 tcp 60 [0 0 10 800] [energy 998.318956 ei 1.664 es 0.000 et 0.001 er 0.016] ------- [16:7 22:12 32 22] [0 0] 0 0
D 5.000000000 _19_ RTR  CBK 501 tcp 60 [0 0 13 800] [energy 998.318956 ei 1.664 es 0.000 et 0.001 er 0.016] ------- [19:40 22:44 32 22] [0 0] 0 0
D 5.000000000 _19_ RTR  CBK 573 tcp 60 [0 0 13 800] [energy 998.318956 ei 1.664 es 0.000 et 0.001 er 0.016] ------- [19:46 22:47 32 22] [0 0] 0 0
D 5.000000000 _6_ IFQ  ARP 384 tcp 60 [0 0 6 800] [energy 998.318956 ei 1.664 es 0.000 et 0.001 er 0.016] ------- [6:32 13:26 32 13] [0 0] 0 0
D 5.000000000 _23_ IFQ  ARP 512 tcp 60 [0 0 17 800] [energy 998.318956 ei 1.664 es 0.000 et 0.001 er 0.016] ------- [23:30 12:32 32 12] [0 0] 0 0
D 5.000000000 _3_ IFQ  ARP 495 tcp 60 [0 0 3 800] [energy 998.318956 ei 1.664 es 0.000 et 0.001 er 0.016] ------- [3:39 7:43 32 7] [0 0] 0 0
D 5.000000000 _2_ IFQ  ARP 217 tcp 60 [0 0 2 800] [energy 998.318956 ei 1.664 es 0.000 et 0.001 er 0.016] ------- [2:18 12:8 32 12] [0 0] 0 0
D 5.000000000 _17_ IFQ  ARP 223 tcp 60 [0 0 11 800] [energy 998.318956 ei 1.664 es 0.000 et 0.001 er 0.016] ------- [17:18 11:19 32 11] [0 0] 0 0
D 5.000000000 _15_ IFQ  ARP 540 tcp 60 [0 0 f 800] [energy 998.318956 ei 1.664 es 0.000 et 0.001 er 0.016] ------- [15:51 12:34 32 12] [0 0] 0 0
D 5.000000000 _9_ IFQ  ARP 448 tcp 60 [0 0 9 800] [energy 998.318956 ei 1.664 es 0.000 et 0.001 er 0.016] ------- [9:30 3:34 32 3] [0 0] 0 0
D 5.000000000 _11_ IFQ  ARP 150 tcp 60 [0 0 b 800] [energy 998.318956 ei 1.664 es 0.000 et 0.001 er 0.016] ------- [11:10 5:8 32 5] [0 0] 0 0
D 5.000000000 _22_ IFQ  ARP 123 tcp 60 [0 0 16 800] [energy 998.318957 ei 1.664 es 0.000 et 0.001 er 0.016] ------- [22:10 13:5 32 13] [0 0] 0 0
D 5.000000000 _1_ IFQ  ARP 427 tcp 60 [0 0 1 800] [energy 998.318956 ei 1.664 es 0.000 et 0.001 er 0.016] ------- [1:36 8:42 32 8] [0 0] 0 0
D 5.000000000 _24_ IFQ  ARP 130 tcp 60 [0 0 18 800] [energy 998.318974 ei 1.665 es 0.000 et 0.001 er 0.015] ------- [24:7 13:6 32 13] [0 0] 0 0
D 5.000000000 _12_ IFQ  ARP 57 tcp 60 [0 0 c 800] [energy 998.318956 ei 1.664 es 0.000 et 0.001 er 0.016] ------- [12:0 8:3 32 8] [0 0] 0 0
D 5.000000000 _17_ IFQ  ARP 321 tcp 60 [0 0 11 800] [energy 998.318956 ei 1.664 es 0.000 et 0.001 er 0.016] ------- [17:25 20:21 32 20] [0 0] 0 0
D 5.000000000 _5_ IFQ  ARP 473 tcp 60 [0 0 5 800] [energy 998.318956 ei 1.664 es 0.000 et 0.001 er 0.016] ------- [5:27 12:28 32 12] [0 0] 0 0
D 5.000000000 _23_ IFQ  ARP 627 tcp 60 [0 0 17 800] [energy 998.318956 ei 1.664 es 0.000 et 0.001 er 0.016] ------- [23:39 21:48 32 21] [0 0] 0 0
D 5.000000000 _11_ IFQ  ARP 606 tcp 60 [0 0 b 800] [energy 998.318956 ei 1.664 es 0.000 et 0.001 er 0.016] ------- [11:56 18:40 32 18] [0 0] 0 0
D 5.000000000 _6_ IFQ  ARP 554 tcp 60 [0 0 6 800] [energy 998.318956 ei 1.664 es 0.000 et 0.001 er 0.016] ------- [6:45 15:53 32 15] [0 0] 0 0
D 5.000000000 _17_ IFQ  ARP 626 tcp 60 [0 0 11 800] [energy 998.318956 ei 1.664 es 0.000 et 0.001 er 0.016] ------- [17:47 20:38 32 20] [0 0] 0 0
D 5.000000000 _14_ RTR  CBK 535 tcp 60 [0 0 e 800] [energy 998.318956 ei 1.664 es 0.000 et 0.001 er 0.016] ------- [14:35 8:47 32 8] [0 0] 0 0
D 5.000000000 _14_ RTR  CBK 644 tcp 60 [0 0 e 800] [energy 998.318956 ei 1.664 es 0.000 et 0.001 er 0.016] ------- [14:46 8:56 32 8] [0 0] 0 0
D 5.000000000 _10_ IFQ  ARP 432 tcp 60 [0 0 a 800] [energy 998.318956 ei 1.664 es 0.000 et 0.001 er 0.016] ------- [10:41 6:37 32 6] [0 0] 0 0
D 5.000000000 _22_ IFQ  ARP 28 tcp 60 [0 0 16 800] [energy 998.318957 ei 1.664 es 0.000 et 0.001 er 0.016] ------- [22:1 18:0 32 18] [0 0] 0 0
D 5.000000000 _12_ IFQ  ARP 311 tcp 60 [0 0 c 800] [energy 998.318956 ei 1.664 es 0.000 et 0.001 er 0.016] ------- [12:19 9:19 32 9] [0 0] 0 0
D 5.000000000 _14_ IFQ  ARP 579 tcp 60 [0 0 e 800] [energy 998.318956 ei 1.664 es 0.000 et 0.001 er 0.016] ------- [14:40 4:44 32 4] [0 0] 0 0
D 5.000000000 _7_ IFQ  ARP 541 tcp 60 [0 0 7 800] [energy 998.318956 ei 1.664 es 0.000 et 0.001 er 0.016] ------- [7:53 14:36 32 14] [0 0] 0 0
D 5.000000000 _18_ IFQ  ARP 411 tcp 60 [0 0 12 800] [energy 998.318956 ei 1.664 es 0.000 et 0.001 er 0.016] ------- [18:22 19:29 32 19] [0 0] 0 0
D 5.000000000 _5_ IFQ  ARP 604 tcp 60 [0 0 5 800] [energy 998.318956 ei 1.664 es 0.000 et 0.001 er 0.016] ------- [5:39 10:54 32 10] [0 0] 0 0
D 5.000000000 _2_ IFQ  ARP 482 tcp 60 [0 0 2 800] [energy 998.318956 ei 1.664 es 0.000 et 0.001 er 0.016] ------- [2:38 11:45 32 11] [0 0] 0 0
D 5.000000000 _8_ IFQ  ARP 279 tcp 60 [0 0 8 800] [energy 998.318956 ei 1.664 es 0.000 et 0.001 er 0.016] ------- [8:28 12:14 32 12] [0 0] 0 0
D 5.000000000 _2_ IFQ  ARP 586 tcp 60 [0 0 2 800] [energy 998.318956 ei 1.664 es 0.000 et 0.001 er 0.016] ------- [2:46 12:42 32 12] [0 0] 0 0
D 5.000000000 _22_ IFQ  ARP 597 tcp 60 [0 0 16 800] [energy 998.318957 ei 1.664 es 0.000 et 0.001 er 0.016] ------- [22:49 13:38 32 13] [0 0] 0 0
D 5.000000000 _16_ IFQ  ARP 159 tcp 60 [0 0 10 800] [energy 998.318956 ei 1.664 es 0.000 et 0.001 er 0.016] ------- [16:9 23:8 32 23] [0 0] 0 0
D 5.000000000 _24_ IFQ  ARP 612 tcp 60 [0 0 18 800] [energy 998.318974 ei 1.665 es 0.000 et 0.001 er 0.015] ------- [24:45 13:39 32 13] [0 0] 0 0
D 5.000000000 _20_ RTR  CBK 536 tcp 60 [0 0 14 800] [energy 998.318974 ei 1.665 es 0.000 et 0.001 er 0.015] ------- [20:34 21:40 32 21] [0 0] 0 0
D 5.000000000 _20_ RTR  CBK 694 tcp 60 [0 0 14 800] [energy 998.318974 ei 1.665 es 0.000 et 0.001 er 0.015] ------- [20:46 21:52 32 21] [0 0] 0 0
D 5.000000000 _12_ IFQ  ARP 564 tcp 60 [0 0 c 800] [energy 998.318956 ei 1.664 es 0.000 et 0.001 er 0.016] ------- [12:38 2:44 32 2] [0 0] 0 0
D 5.000000000 _12_ IFQ  ARP 283 tcp 60 [0 0 c 800] [energy 998.318956 ei 1.664 es 0.000 et 0.001 er 0.016] ------- [12:16 6:25 32 6] [0 0] 0 0
D 5.000000000 _22_ IFQ  ARP 267 tcp 60 [0 0 16 800] [energy 998.318957 ei 1.664 es 0.000 et 0.001 er 0.016] ------- [22:21 23:14 32 23] [0 0] 0 0
D 5.000000000 _16_ IFQ  ARP 84 tcp 60 [0 0 10 800] [energy 998.318956 ei 1.664 es 0.000 et 0.001 er 0.016] ------- [16:5 12:2 32 12] [0 0] 0 0
D 5.000000000 _2_ RTR  CBK 422 tcp 60 [0 0 2 800] [energy 998.318956 ei 1.664 es 0.000 et 0.001 er 0.016] ------- [2:33 4:33 32 4] [0 0] 0 0
D 5.000000000 _2_ RTR  CBK 715 tcp 60 [0 0 2 800] [energy 998.318956 ei 1.664 es 0.000 et 0.001 er 0.016] ------- [2:61 4:52 32 4] [0 0] 0 0
D 5.000000000 _11_ IFQ  ARP 32 tcp 60 [0 0 b 800] [energy 998.318956 ei 1.664 es 0.000 et 0.001 er 0.016] ------- [11:1 2:3 32 2] [0 0] 0 0
D 5.000000000 _19_ IFQ  ARP 221 tcp 60 [0 0 13 800] [energy 998.318956 ei 1.664 es 0.000 et 0.001 er 0.016] ------- [19:12 8:21 32 8] [0 0] 0 0
D 5.000000000 _2_ IFQ  ARP 659 tcp 60 [0 0 2 800] [energy 998.318956 ei 1.664 es 0.000 et 0.001 er 0.016] ------- [2:57 9:41 32 9] [0 0] 0 0
D 5.000000000 _24_ RTR  CBK 690 tcp 60 [0 0 18 800] [energy 998.318974 ei 1.665 es 0.000 et 0.001 er 0.015] ------- [24:53 13:44 32 13] [0 0] 0 0
D 5.000000000 _24_ RTR  CBK 735 tcp 60 [0 0 18 800] [energy 998.318974 ei 1.665 es 0.000 et 0.001 er 0.015] ------- [24:56 13:49 32 13] [0 0] 0 0
D 5.000000000 _3_ RTR  CBK 510 tcp 60 [0 0 3 800] [energy 998.318956 ei 1.664 es 0.000 et 0.001 er 0.016] ------- [3:42 13:31 32 13] [0 0] 0 0
D 5.000000000 _3_ RTR  CBK 738 tcp 60 [0 0 3 800] [energy 998.318956 ei 1.664 es 0.000 et 0.001 er 0.016] ------- [3:57 13:50 32 13] [0 0] 0 0
D 5.000000000 _12_ IFQ  ARP 500 tcp 60 [0 0 c 800] [energy 998.318956 ei 1.664 es 0.000 et 0.001 er 0.016] ------- [12:31 18:33 32 18] [0 0] 0 0
D 5.000000000 _15_ IFQ  ARP 285 tcp 60 [0 0 f 800] [energy 998.318956 ei 1.664 es 0.000 et 0.001 er 0.016] ------- [15:23 20:19 32 20] [0 0] 0 0
D 5.000000000 _22_ IFQ  ARP 708 tcp 60 [0 0 16 800] [energy 998.318957 ei 1.664 es 0.000 et 0.001 er 0.016] ------- [22:60 23:48 32 23] [0 0] 0 0
D 5.000000000 _8_ IFQ  ARP 390 tcp 60 [0 0 8 800] [energy 998.318956 ei 1.664 es 0.000 et 0.001 er 0.016] ------- [8:38 11:32 32 11] [0 0] 0 0
D 5.000000000 _21_ IFQ  ARP 633 tcp 60 [0 0 15 800] [energy 998.318956 ei 1.664 es 0.000 et 0.001 er 0.016] ------- [21:50 23:41 32 23] [0 0] 0 0
D 5.000000000 _0_ RTR  CBK 476 tcp 60 [0 0 0 800] [energy 998.318973 ei 1.665 es 0.000 et 0.001 er 0.015] ------- [0:34 1:43 32 1] [0 0] 0 0
D 5.000000000 _0_ RTR  CBK 747 tcp 60 [0 0 0 800] [energy 998.318973 ei 1.665 es 0.000 et 0.001 er 0.015] ------- [0:52 1:61 32 1] [0 0] 0 0
D 5.000000000 _6_ IFQ  ARP 576 tcp 60 [0 0 6 800] [energy 998.318956 ei 1.664 es 0.000 et 0.001 er 0.016] ------- [6:48 13:36 32 13] [0 0] 0 0
D 5.000000000 _16_ IFQ  ARP 712 tcp 60 [0 0 10 800] [energy 998.318956 ei 1.664 es 0.000 et 0.001 er 0.016] ------- [16:53 12:55 32 12] [0 0] 0 0
D 5.000000000 _3_ IFQ  ARP 580 tcp 60 [0 0 3 800] [energy 998.318956 ei 1.664 es 0.000 et 0.001 er 0.016] ------- [3:46 7:58 32 7] [0 0] 0 0
D 5.000000000 _14_ IFQ  ARP 534 tcp 60 [0 0 e 800] [energy 998.318956 ei 1.664 es 0.000 et 0.001 er 0.016] ------- [14:34 24:41 32 24] [0 0] 0 0
D 5.000000000 _10_ IFQ  ARP 646 tcp 60 [0 0 a 800] [energy 998.318956 ei 1.664 es 0.000 et 0.001 er 0.016] ------- [10:57 17:49 32 17] [0 0] 0 0
D 5.000000000 _17_ IFQ  ARP 595 tcp 60 [0 0 11 800] [energy 998.318956 ei 1.664 es 0.000 et 0.001 er 0.016] ------- [17:44 10:52 32 10] [0 0] 0 0
D 5.000000000 _18_ IFQ  ARP 232 tcp 60 [0 0 12 800] [energy 998.318956 ei 1.664 es 0.000 et 0.001 er 0.016] ------- [18:13 7:23 32 7] [0 0] 0 0
D 5.000000000 _17_ IFQ  ARP 170 tcp 60 [0 0 11 800] [energy 998.318956 ei 1.664 es 0.000 et 0.001 er 0.016] ------- [17:12 7:16 32 7] [0 0] 0 0
D 5.000000000 _11_ IFQ  ARP 421 tcp 60 [0 0 b 800] [energy 998.318956 ei 1.664 es 0.000 et 0.001 er 0.016] ------- [11:37 17:33 32 17] [0 0] 0 0
D 5.000000000 _16_ IFQ  ARP 667 tcp 60 [0 0 10 800] [energy 998.318956 ei 1.664 es 0.000 et 0.001 er 0.016] ------- [16:49 6:53 32 6] [0 0] 0 0
D 5.000000000 _12_ IFQ  ARP 640 tcp 60 [0 0 c 800] [energy 998.318956 ei 1.664 es 0.000 et 0.001 er 0.016] ------- [12:47 5:44 32 5] [0 0] 0 0
D 5.000000000 _16_ IFQ  ARP 689 tcp 60 [0 0 10 800] [energy 998.318956 ei 1.664 es 0.000 et 0.001 er 0.016] ------- [16:51 23:45 32 23] [0 0] 0 0
D 5.000000000 _21_ IFQ  ARP 745 tcp 60 [0 0 15 800] [energy 998.318956 ei 1.664 es 0.000 et 0.001 er 0.016] ------- [21:57 23:52 32 23] [0 0] 0 0
D 5.000000000 _11_ IFQ  ARP 385 tcp 60 [0 0 b 800] [energy 998.318956 ei 1.664 es 0.000 et 0.001 er 0.016] ------- [11:31 7:35 32 7] [0 0] 0 0
D 5.000000000 _5_ IFQ  ARP 663 tcp 60 [0 0 5 800] [energy 998.318956 ei 1.664 es 0.000 et 0.001 er 0.016] ------- [5:45 6:52 32 6] [0 0] 0 0
D 5.000000000 _21_ IFQ  ARP 509 tcp 60 [0 0 15 800] [energy 998.318956 ei 1.664 es 0.000 et 0.001 er 0.016] ------- [21:35 16:35 32 16] [0 0] 0 0
D 5.000000000 _14_ IFQ  ARP 698 tcp 60 [0 0 e 800] [energy 998.318956 ei 1.664 es 0.000 et 0.001 er 0.016] ------- [14:53 12:52 32 12] [0 0] 0 0
D 5.000000000 _7_ IFQ  ARP 522 tcp 60 [0 0 7 800] [energy 998.318956 ei 1.664 es 0.000 et 0.001 er 0.016] ------- [7:50 13:32 32 13] [0 0] 0 0
D 5.000000000 _13_ IFQ  ARP 718 tcp 60 [0 0 d 800] [energy 998.318956 ei 1.664 es 0.000 et 0.001 er 0.016] ------- [13:48 9:46 32 9] [0 0] 0 0
D 5.000000000 _23_ IFQ  ARP 360 tcp 60 [0 0 17 800] [energy 998.318956 ei 1.664 es 0.000 et 0.001 er 0.016] ------- [23:21 22:31 32 22] [0 0] 0 0
D 5.000000000 _1_ RTR  CBK 601 tcp 60 [0 0 1 800] [energy 998.318956 ei 1.664 es 0.000 et 0.001 er 0.016] ------- [1:52 8:52 32 8] [0 0] 0 0
D 5.000000000 _1_ RTR  CBK 802 tcp 60 [0 0 1 800] [energy 998.318956 ei 1.664 es 0.000 et 0.001 er 0.016] ------- [1:66 8:71 32 8] [0 0] 0 0
D 5.000000000 _14_ IFQ  ARP 755 tcp 60 [0 0 e 800] [energy 998.318956 ei 1.664 es 0.000 et 0.001 er 0.016] ------- [14:56 24:57 32 24] [0 0] 0 0
D 5.000000000 _23_ RTR  CBK 578 tcp 60 [0 0 17 800] [energy 998.318956 ei 1.664 es 0.000 et 0.001 er 0.016] ------- [23:35 12:41 32 12] [0 0] 0 0
D 5.000000000 _23_ RTR  CBK 805 tcp 60 [0 0 17 800] [energy 998.318956 ei 1.664 es 0.000 et 0.001 er 0.016] ------- [23:61 12:61 32 12] [0 0] 0 0
D 5.000000000 _5_ IFQ  ARP 673 tcp 60 [0 0 5 800] [energy 998.318956 ei 1.664 es 0.000 et 0.001 er 0.016] ------- [5:46 10:60 32 10] [0 0] 0 0
D 5.000000000 _16_ IFQ  ARP 639 tcp 60 [0 0 10 800] [energy 998.318956 ei 1.664 es 0.000 et 0.001 er 0.016] ------- [16:47 18:44 32 18] [0 0] 0 0
D 5.000000000 _21_ IFQ  ARP 215 tcp 60 [0 0 15 800] [energy 998.318956 ei 1.664 es 0.000 et 0.001 er 0.016] ------- [21:14 11:17 32 11] [0 0] 0 0
D 5.000000000 _12_ IFQ  ARP 616 tcp 60 [0 0 c 800] [energy 998.318956 ei 1.664 es 0.000 et 0.001 er 0.016] ------- [12:45 8:53 32 8] [0 0] 0 0
D 5.000000000 _22_ IFQ  ARP 397 tcp 60 [0 0 16 800] [energy 998.318957 ei 1.664 es 0.000 et 0.001 er 0.016] ------- [22:35 15:38 32 15] [0 0] 0 0
D 5.000000000 _5_ IFQ  ARP 629 tcp 60 [0 0 5 800] [energy 998.318956 ei 1.664 es 0.000 et 0.001 er 0.016] ------- [5:43 12:46 32 12] [0 0] 0 0
D 5.000000000 _12_ IFQ  ARP 566 tcp 60 [0 0 c 800] [energy 998.318956 ei 1.664 es 0.000 et 0.001 er 0.016] ------- [12:39 19:44 32 19] [0 0] 0 0
D 5.000000000 _11_ IFQ  ARP 783 tcp 60 [0 0 b 800] [energy 998.318956 ei 1.664 es 0.000 et 0.001 er 0.016] ------- [11:70 7:71 32 7] [0 0] 0 0
D 5.000000000 _1_ IFQ  ARP 365 tcp 60 [0 0 1 800] [energy 998.318956 ei 1.664 es 0.000 et 0.001 er 0.016] ------- [1:32 6:28 32 6] [0 0] 0 0
D 5.000000000 _10_ IFQ  ARP 357 tcp 60 [0 0 a 800] [energy 998.318956 ei 1.664 es 0.000 et 0.001 er 0.016] ------- [10:35 12:22 32 12] [0 0] 0 0
D 5.000000000 _7_ RTR  CBK 665 tcp 60 [0 0 7 800] [energy 998.318956 ei 1.664 es 0.000 et 0.001 er 0.016] ------- [7:62 14:50 32 14] [0 0] 0 0
D 5.000000000 _7_ RTR  CBK 832 tcp 60 [0 0 7 800] [energy 998.318956 ei 1.664 es 0.000 et 0.001 er 0.016] ------- [7:77 14:61 32 14] [0 0] 0 0
D 5.000000000 _3_ IFQ  ARP 60 tcp 60 [0 0 3 800] [energy 998.318956 ei 1.664 es 0.000 et 0.001 er 0.016] ------- [3:4 1:2 32 1] [0 0] 0 0
D 5.000000000 _8_ IFQ  ARP 620 tcp 60 [0 0 8 800] [energy 998.318956 ei 1.664 es 0.000 et 0.001 er 0.016] ------- [8:54 13:40 32 13] [0 0] 0 0
D 5.000000000 _10_ IFQ  ARP 763 tcp 60 [0 0 a 800] [energy 998.318956 ei 1.664 es 0.000 et 0.001 er 0.016] ------- [10:65 17:56 32 17] [0 0] 0 0
D 5.000000000 _7_ IFQ  ARP 424 tcp 60 [0 0 7 800] [energy 998.318956 ei 1.664 es 0.000 et 0.001 er 0.016] ------- [7:37 16:30 32 16] [0 0] 0 0